 vasp.5.4.4.18Apr17-6-g9f103f2a35 (build Jun 30 2017 19:19:18) complex          
  
 executed on         MareNostrum4 date 2022.04.12  11:03:59
 running on   48 total cores
 distrk:  each k-point on   48 cores,    1 groups
 distr:  one band on NCORES_PER_BAND=   1 cores,   48 groups


--------------------------------------------------------------------------------------------------------


 INCAR:
 POTCAR:    PAW_PBE Cu 22Jun2005                  
 POTCAR:    PAW_PBE O 08Apr2002                   
 POTCAR:    PAW_PBE C 08Apr2002                   
 POTCAR:    PAW_PBE N 08Apr2002                   
 POTCAR:    PAW_PBE H 15Jun2001                   

 ----------------------------------------------------------------------------- 
|                                                                             |
|           W    W    AA    RRRRR   N    N  II  N    N   GGGG   !!!           |
|           W    W   A  A   R    R  NN   N  II  NN   N  G    G  !!!           |
|           W    W  A    A  R    R  N N  N  II  N N  N  G       !!!           |
|           W WW W  AAAAAA  RRRRR   N  N N  II  N  N N  G  GGG   !            |
|           WW  WW  A    A  R   R   N   NN  II  N   NN  G    G                |
|           W    W  A    A  R    R  N    N  II  N    N   GGGG   !!!           |
|                                                                             |
|      For optimal performance we recommend to set                            |
|        NCORE= 4 - approx SQRT( number of cores)                             |
|      NCORE specifies how many cores store one orbital (NPAR=cpu/NCORE).     |
|      This setting can  greatly improve the performance of VASP for DFT.     |
|      The default,   NCORE=1            might be grossly inefficient         |
|      on modern multi-core architectures or massively parallel machines.     |
|      Do your own testing !!!!                                               |
|      Unfortunately you need to use the default for GW and RPA calculations. |
|      (for HF NCORE is supported but not extensively tested yet)             |
|                                                                             |
 ----------------------------------------------------------------------------- 

 POTCAR:    PAW_PBE Cu 22Jun2005                  
  local pseudopotential read in
  partial core-charges read in
  partial kinetic energy density read in
  atomic valenz-charges read in
  non local Contribution for L=           2  read in
    real space projection operators read in
  non local Contribution for L=           2  read in
    real space projection operators read in
  non local Contribution for L=           0  read in
    real space projection operators read in
  non local Contribution for L=           0  read in
    real space projection operators read in
  non local Contribution for L=           1  read in
    real space projection operators read in
  non local Contribution for L=           1  read in
    real space projection operators read in
    PAW grid and wavefunctions read in
 
   number of l-projection  operators is LMAX  =           6
   number of lm-projection operators is LMMAX =          18
 
 POTCAR:    PAW_PBE O 08Apr2002                   
  local pseudopotential read in
  partial core-charges read in
  partial kinetic energy density read in
  kinetic energy density of atom read in
  atomic valenz-charges read in
  non local Contribution for L=           0  read in
    real space projection operators read in
  non local Contribution for L=           0  read in
    real space projection operators read in
  non local Contribution for L=           1  read in
    real space projection operators read in
  non local Contribution for L=           1  read in
    real space projection operators read in
    PAW grid and wavefunctions read in
 
   number of l-projection  operators is LMAX  =           4
   number of lm-projection operators is LMMAX =           8
 
 POTCAR:    PAW_PBE C 08Apr2002                   
  local pseudopotential read in
  partial core-charges read in
  partial kinetic energy density read in
  atomic valenz-charges read in
  non local Contribution for L=           0  read in
    real space projection operators read in
  non local Contribution for L=           0  read in
    real space projection operators read in
  non local Contribution for L=           1  read in
    real space projection operators read in
  non local Contribution for L=           1  read in
    real space projection operators read in
    PAW grid and wavefunctions read in
 
   number of l-projection  operators is LMAX  =           4
   number of lm-projection operators is LMMAX =           8
 
 POTCAR:    PAW_PBE N 08Apr2002                   
  local pseudopotential read in
  partial core-charges read in
  partial kinetic energy density read in
  atomic valenz-charges read in
  non local Contribution for L=           0  read in
    real space projection operators read in
  non local Contribution for L=           0  read in
    real space projection operators read in
  non local Contribution for L=           1  read in
    real space projection operators read in
  non local Contribution for L=           1  read in
    real space projection operators read in
    PAW grid and wavefunctions read in
 
   number of l-projection  operators is LMAX  =           4
   number of lm-projection operators is LMMAX =           8
 
 POTCAR:    PAW_PBE H 15Jun2001                   
  local pseudopotential read in
  atomic valenz-charges read in
  non local Contribution for L=           0  read in
    real space projection operators read in
  non local Contribution for L=           0  read in
    real space projection operators read in
  non local Contribution for L=           1  read in
    real space projection operators read in
    PAW grid and wavefunctions read in
 
   number of l-projection  operators is LMAX  =           3
   number of lm-projection operators is LMMAX =           5
 
 Optimization of the real space projectors (new method)

 maximal supplied QI-value         = 16.25
 optimisation between [QCUT,QGAM] = [ 10.73, 21.61] = [ 32.22,130.83] Ry 
 Optimized for a Real-space Cutoff    1.42 Angstroem

   l    n(q)    QCUT    max X(q) W(low)/X(q) W(high)/X(q)  e(spline) 
   2      8    10.726     4.610    0.15E-03    0.25E-03    0.14E-06
   2      8    10.726     8.522    0.25E-03    0.43E-03    0.27E-06
   0      9    10.726    51.609    0.94E-04    0.10E-03    0.12E-06
   0      9    10.726    27.747    0.85E-04    0.96E-04    0.11E-06
   1      9    10.726    20.408    0.25E-03    0.14E-03    0.12E-06
   1      9    10.726    13.425    0.22E-03    0.13E-03    0.11E-06
 Optimization of the real space projectors (new method)

 maximal supplied QI-value         = 24.76
 optimisation between [QCUT,QGAM] = [ 10.64, 21.54] = [ 31.73,129.89] Ry 
 Optimized for a Real-space Cutoff    1.23 Angstroem

   l    n(q)    QCUT    max X(q) W(low)/X(q) W(high)/X(q)  e(spline) 
   0      8    10.645    20.381    0.38E-03    0.60E-03    0.15E-06
   0      8    10.645    15.268    0.40E-03    0.65E-03    0.17E-06
   1      7    10.645     5.964    0.30E-03    0.63E-03    0.18E-06
   1      7    10.645     5.382    0.24E-03    0.53E-03    0.16E-06
 Optimization of the real space projectors (new method)

 maximal supplied QI-value         = 25.13
 optimisation between [QCUT,QGAM] = [ 10.81, 21.61] = [ 32.71,130.83] Ry 
 Optimized for a Real-space Cutoff    1.23 Angstroem

   l    n(q)    QCUT    max X(q) W(low)/X(q) W(high)/X(q)  e(spline) 
   0      8    10.807   115.676    0.36E-03    0.72E-03    0.24E-06
   0      8    10.807    87.132    0.35E-03    0.71E-03    0.24E-06
   1      7    10.807     4.429    0.19E-03    0.39E-03    0.11E-06
   1      7    10.807     2.733    0.14E-03    0.28E-03    0.13E-06
 Optimization of the real space projectors (new method)

 maximal supplied QI-value         = 25.13
 optimisation between [QCUT,QGAM] = [ 10.81, 21.61] = [ 32.71,130.83] Ry 
 Optimized for a Real-space Cutoff    1.23 Angstroem

   l    n(q)    QCUT    max X(q) W(low)/X(q) W(high)/X(q)  e(spline) 
   0      8    10.807    79.467    0.34E-03    0.68E-03    0.21E-06
   0      8    10.807    66.151    0.34E-03    0.67E-03    0.21E-06
   1      7    10.807    14.030    0.45E-03    0.13E-02    0.11E-05
   1      7    10.807     9.831    0.48E-03    0.13E-02    0.11E-05
 Optimization of the real space projectors (new method)

 maximal supplied QI-value         = 34.20
 optimisation between [QCUT,QGAM] = [ 10.60, 21.55] = [ 31.48,130.03] Ry 
 Optimized for a Real-space Cutoff    1.23 Angstroem

   l    n(q)    QCUT    max X(q) W(low)/X(q) W(high)/X(q)  e(spline) 
   0      8    10.603    19.460    0.37E-03    0.59E-03    0.23E-06
   0      8    10.603    12.209    0.35E-03    0.56E-03    0.22E-06
   1      7    10.603     4.655    0.70E-04    0.28E-03    0.29E-06
  PAW_PBE Cu 22Jun2005                  :
 energy of atom  1       EATOM=-1390.9808
 kinetic energy error for atom=    0.0097 (will be added to EATOM!!)
  PAW_PBE O 08Apr2002                   :
 energy of atom  2       EATOM= -432.3788
 kinetic energy error for atom=    0.0389 (will be added to EATOM!!)
  PAW_PBE C 08Apr2002                   :
 energy of atom  3       EATOM= -147.1560
 kinetic energy error for atom=    0.0116 (will be added to EATOM!!)
  PAW_PBE N 08Apr2002                   :
 energy of atom  4       EATOM= -264.5486
 kinetic energy error for atom=    0.0253 (will be added to EATOM!!)
  PAW_PBE H 15Jun2001                   :
 energy of atom  5       EATOM=  -12.4884
 kinetic energy error for atom=    0.0045 (will be added to EATOM!!)
 
 
 POSCAR: Cu  O  C  N  H                          
  positions in direct lattice
  velocities in cartesian coordinates
 exchange correlation table for  LEXCH =        8
   RHO(1)=    0.500       N(1)  =     2000
   RHO(2)=  100.500       N(2)  =     4000
 


--------------------------------------------------------------------------------------------------------


 ion  position               nearest neighbor table
   1  0.000  0.000  0.000-   2 2.52   3 2.52   4 2.52  28 2.52  10 2.52  35 2.52  70 2.52  40 2.52
                            47 2.52
   2  0.000  0.167  0.000-   3 2.52   1 2.52   8 2.52  28 2.52   5 2.52  27 2.52  39 2.52  61 2.52
                            40 2.52
   3  0.167  0.167  0.000-   2 2.52   1 2.52   8 2.52  14 2.52   4 2.52  17 2.52  38 2.52  40 2.52
                            37 2.52
   4  0.167  0.000  0.000-  10 2.52  14 2.52   1 2.52  13 2.52   3 2.52  11 2.52  47 2.52  37 2.52
                            46 2.52
   5  0.000  0.333  0.000-   6 2.52   8 2.52  32 2.52   7 2.52  27 2.52   2 2.52  62 2.52  44 2.52
                            39 2.52
   6  0.000  0.500  0.000-  12 2.52   5 2.52   7 2.52   9 2.52  32 2.52  31 2.52  43 2.52  65 2.52
                            44 2.52
   7  0.167  0.500  0.000-  18 2.52   8 2.52  21 2.52   6 2.52   5 2.52  12 2.52  42 2.52  44 2.52
                            41 2.52
   8  0.167  0.333  0.000-   7 2.52   2 2.52  18 2.52   3 2.52   5 2.52  17 2.52  39 2.52  41 2.52
                            38 2.52
   9  0.000  0.667  0.000-  10 2.52  12 2.52  36 2.52  31 2.52   6 2.52  11 2.52  66 2.52  48 2.52
                            43 2.52
  10  0.000  0.833  0.000-   4 2.52   9 2.52  11 2.52   1 2.52  36 2.52  35 2.52  47 2.52  69 2.52
                            48 2.52
  11  0.167  0.833  0.000-  22 2.52  13 2.52  12 2.52  10 2.52   4 2.52   9 2.52  46 2.52  48 2.52
                            45 2.52
  12  0.167  0.667  0.000-   6 2.52  11 2.52  22 2.52   9 2.52  21 2.52   7 2.52  43 2.52  45 2.52
                            42 2.52
  13  0.333  0.000  0.000-  15 2.52  22 2.52  11 2.52  16 2.52   4 2.52  14 2.52  46 2.52  52 2.52
                            59 2.52
  14  0.333  0.167  0.000-   4 2.52  17 2.52  15 2.52   3 2.52  13 2.52  20 2.52  37 2.52  51 2.52
                            52 2.52
  15  0.500  0.167  0.000-  13 2.52  20 2.52  14 2.52  26 2.52  16 2.52  29 2.52  50 2.52  52 2.52
                            49 2.52
  16  0.500  0.000  0.000-  26 2.52  25 2.52  13 2.52  23 2.52  15 2.52  22 2.52  59 2.52  49 2.52
                            58 2.52
  17  0.333  0.333  0.000-  14 2.52  20 2.52   8 2.52  19 2.52  18 2.52   3 2.52  38 2.52  56 2.52
                            51 2.52
  18  0.333  0.500  0.000-   7 2.52  21 2.52   8 2.52  17 2.52  24 2.52  19 2.52  41 2.52  55 2.52
                            56 2.52
  19  0.500  0.500  0.000-  30 2.52  33 2.52  20 2.52  17 2.52  24 2.52  18 2.52  54 2.52  56 2.52
                            53 2.52
  20  0.500  0.333  0.000-  19 2.52  30 2.52  15 2.52  29 2.52  17 2.52  14 2.52  51 2.52  53 2.52
                            50 2.52
  21  0.333  0.667  0.000-  18 2.52   7 2.52  24 2.52  12 2.52  23 2.52  22 2.52  42 2.52  60 2.52
                            55 2.52
  22  0.333  0.833  0.000-  11 2.52  13 2.52  12 2.52  16 2.52  21 2.52  23 2.52  45 2.52  59 2.52
                            60 2.52
  23  0.500  0.833  0.000-  34 2.52  25 2.52  24 2.52  16 2.52  21 2.52  22 2.52  58 2.52  60 2.52
                            57 2.52
  24  0.500  0.667  0.000-  23 2.52  34 2.52  33 2.52  21 2.52  18 2.52  19 2.52  55 2.52  57 2.52
                            54 2.52
  25  0.667  0.000  0.000-  23 2.52  27 2.52  34 2.52  16 2.52  28 2.52  26 2.52  58 2.52  64 2.52
                            71 2.52
  26  0.667  0.167  0.000-  16 2.52  29 2.52  27 2.52  15 2.52  25 2.52  32 2.52  49 2.52  63 2.52
                            64 2.52
  27  0.833  0.167  0.000-  25 2.52  32 2.52  26 2.52  28 2.52   5 2.52   2 2.52  62 2.52  64 2.52
                            61 2.52
  28  0.833  0.000  0.000-  35 2.52   1 2.52  25 2.52  27 2.52  34 2.52   2 2.52  71 2.52  61 2.52
                            70 2.52
  29  0.667  0.333  0.000-  31 2.52  26 2.52  20 2.52  32 2.52  30 2.52  15 2.52  50 2.52  68 2.52
                            63 2.52
  30  0.667  0.500  0.000-  19 2.52  20 2.52  33 2.52  31 2.52  29 2.52  36 2.52  53 2.52  67 2.52
                            68 2.52
  31  0.833  0.500  0.000-  36 2.52  29 2.52  30 2.52  32 2.52   9 2.52   6 2.52  66 2.52  68 2.52
                            65 2.52
  32  0.833  0.333  0.000-  27 2.52   5 2.52  29 2.52   6 2.52  31 2.52  26 2.52  63 2.52  65 2.52
                            62 2.52
  33  0.667  0.667  0.000-  19 2.52  30 2.52  35 2.52  24 2.52  36 2.52  34 2.52  54 2.52  72 2.52
                            67 2.52
  34  0.667  0.833  0.000-  23 2.52  25 2.52  24 2.52  35 2.52  28 2.52  33 2.52  57 2.52  71 2.52
                            72 2.52
  35  0.833  0.833  0.000-  28 2.52  33 2.52  34 2.52   1 2.52  36 2.52  10 2.52  70 2.52  72 2.52
                            69 2.52
  36  0.833  0.667  0.000-  31 2.52   9 2.52  33 2.52  30 2.52  10 2.52  35 2.52  67 2.52  69 2.52
                            66 2.52
  37  0.222  0.111  0.097-  51 2.52  52 2.52  38 2.52  46 2.52  40 2.52  47 2.52  14 2.52   4 2.52
                             3 2.52  75 2.54  76 2.54  74 2.54
  38  0.222  0.278  0.097-  37 2.52  51 2.52  40 2.52  56 2.52  39 2.52  41 2.52   3 2.52  17 2.52
                             8 2.52  76 2.54  73 2.54  79 2.54
  39  0.056  0.278  0.097-  40 2.52  61 2.52  62 2.52  38 2.52  41 2.52  44 2.52   2 2.52   8 2.52
                             5 2.52 100 2.54  78 2.54  73 2.55
  40  0.056  0.111  0.097-  39 2.52  61 2.52  38 2.52  70 2.52  37 2.52  47 2.52   3 2.52   1 2.52
                             2 2.52  99 2.54  73 2.55  74 2.55
  41  0.222  0.444  0.097-  55 2.52  56 2.52  42 2.52  38 2.52  44 2.52  39 2.52  18 2.52   8 2.52
                             7 2.52  78 2.54  79 2.54  80 2.55
  42  0.222  0.611  0.097-  41 2.52  55 2.52  44 2.52  60 2.52  43 2.52  45 2.52   7 2.52  21 2.52
                            12 2.52  77 2.54  83 2.54  80 2.55
  43  0.056  0.611  0.097-  44 2.52  65 2.52  66 2.52  42 2.52  45 2.52  48 2.52   6 2.52  12 2.52
                             9 2.52  82 2.54 104 2.54  77 2.54
  44  0.056  0.444  0.097-  43 2.52  65 2.52  42 2.52  62 2.52  41 2.52  39 2.52   7 2.52   5 2.52
                             6 2.52  77 2.54 103 2.54  78 2.55
  45  0.222  0.778  0.097-  59 2.52  60 2.52  46 2.52  42 2.52  48 2.52  43 2.52  22 2.52  12 2.52
                            11 2.52  84 2.54  82 2.54  83 2.55
  46  0.222  0.944  0.097-  45 2.52  59 2.52  48 2.52  52 2.52  47 2.52  37 2.52  11 2.52  13 2.52
                             4 2.52  75 2.54  84 2.54  81 2.54
  47  0.056  0.944  0.097-  48 2.52  69 2.52  70 2.52  46 2.52  37 2.52  40 2.52  10 2.52   4 2.52
                             1 2.52  81 2.54 108 2.54  74 2.55
  48  0.056  0.778  0.097-  47 2.52  69 2.52  46 2.52  66 2.52  45 2.52  43 2.52  11 2.52   9 2.52
                            10 2.52  82 2.54  81 2.54 107 2.55
  49  0.556  0.111  0.097-  63 2.52  64 2.52  50 2.52  58 2.52  52 2.52  59 2.52  26 2.52  16 2.52
                            15 2.52  86 2.54  87 2.54  88 2.55
  50  0.556  0.278  0.097-  49 2.52  63 2.52  52 2.52  68 2.52  51 2.52  53 2.52  15 2.52  29 2.52
                            20 2.52  85 2.55  88 2.55  91 2.56
  51  0.389  0.278  0.097-  37 2.52  52 2.52  38 2.52  50 2.52  56 2.52  53 2.52  14 2.52  20 2.52
                            17 2.52  90 2.54  76 2.54  85 2.54
  52  0.389  0.111  0.097-  51 2.52  37 2.52  50 2.52  46 2.52  49 2.52  59 2.52  15 2.52  13 2.52
                            14 2.52  86 2.54  75 2.54  85 2.55
  53  0.556  0.444  0.097-  67 2.52  68 2.52  54 2.52  50 2.52  56 2.52  51 2.52  30 2.52  20 2.52
                            19 2.52  92 2.54  90 2.55  91 2.57
  54  0.556  0.611  0.097-  53 2.52  67 2.52  56 2.52  72 2.52  55 2.52  57 2.52  19 2.52  33 2.52
                            24 2.52  89 2.54  95 2.54  92 2.54
  55  0.389  0.611  0.097-  41 2.52  56 2.52  42 2.52  54 2.52  60 2.52  57 2.52  18 2.52  24 2.52
                            21 2.52  89 2.53  80 2.55  94 2.56
  56  0.389  0.444  0.097-  55 2.52  41 2.52  54 2.52  38 2.52  53 2.52  51 2.52  19 2.52  17 2.52
                            18 2.52  89 2.54  79 2.54  90 2.55
  57  0.556  0.778  0.097-  71 2.52  72 2.52  58 2.52  54 2.52  60 2.52  55 2.52  34 2.52  24 2.52
                            23 2.52  95 2.54  96 2.55  94 2.56
  58  0.556  0.944  0.097-  57 2.52  71 2.52  60 2.52  64 2.52  59 2.52  49 2.52  23 2.52  25 2.52
                            16 2.52  87 2.54  93 2.55  96 2.55
  59  0.389  0.944  0.097-  45 2.52  60 2.52  46 2.52  58 2.52  52 2.52  49 2.52  22 2.52  16 2.52
                            13 2.52  86 2.53  84 2.54  93 2.55
  60  0.389  0.778  0.097-  59 2.52  45 2.52  58 2.52  42 2.52  57 2.52  55 2.52  23 2.52  21 2.52
                            22 2.52  83 2.54  93 2.55  94 2.56
  61  0.889  0.111  0.097-  39 2.52  40 2.52  62 2.52  70 2.52  64 2.52  71 2.52   2 2.52  28 2.52
                            27 2.52  98 2.54 100 2.54  99 2.54
  62  0.889  0.278  0.097-  61 2.52  39 2.52  64 2.52  44 2.52  63 2.52  65 2.52  27 2.52   5 2.52
                            32 2.52  97 2.54 103 2.54 100 2.54
  63  0.722  0.278  0.097-  64 2.52  49 2.52  50 2.52  62 2.52  65 2.52  68 2.52  26 2.52  32 2.52
                            29 2.52  97 2.54  88 2.54 102 2.55
  64  0.722  0.111  0.097-  63 2.52  49 2.52  62 2.52  58 2.52  61 2.52  71 2.52  27 2.52  25 2.52
                            26 2.52  87 2.54  97 2.54  98 2.54
  65  0.889  0.444  0.097-  43 2.52  44 2.52  66 2.52  62 2.52  68 2.52  63 2.52   6 2.52  32 2.52
                            31 2.52 104 2.54 103 2.55 102 2.55
  66  0.889  0.611  0.097-  65 2.52  43 2.52  68 2.52  48 2.52  67 2.52  69 2.52  31 2.52   9 2.52
                            36 2.52 101 2.54 104 2.55 107 2.55
  67  0.722  0.611  0.097-  68 2.52  53 2.52  54 2.52  66 2.52  69 2.52  72 2.52  30 2.52  36 2.52
                            33 2.52  92 2.54 106 2.54 101 2.55
  68  0.722  0.444  0.097-  67 2.52  53 2.52  66 2.52  50 2.52  65 2.52  63 2.52  31 2.52  29 2.52
                            30 2.52 101 2.55 102 2.55  91 2.57
  69  0.889  0.778  0.097-  47 2.52  48 2.52  70 2.52  66 2.52  72 2.52  67 2.52  10 2.52  36 2.52
                            35 2.52 106 2.54 108 2.55 107 2.55
  70  0.889  0.944  0.097-  69 2.52  47 2.52  72 2.52  40 2.52  71 2.52  61 2.52  35 2.52   1 2.52
                            28 2.52 105 2.54  99 2.54 108 2.55
  71  0.722  0.944  0.097-  57 2.52  72 2.52  58 2.52  70 2.52  61 2.52  64 2.52  34 2.52  28 2.52
                            25 2.52  98 2.54 105 2.54  96 2.55
  72  0.722  0.778  0.097-  71 2.52  57 2.52  70 2.52  54 2.52  69 2.52  67 2.52  35 2.52  33 2.52
                            34 2.52 105 2.54  95 2.54 106 2.54
  73  0.111  0.222  0.196-  76 2.52  78 2.52  79 2.52  74 2.52 100 2.52  99 2.53 110 2.54  38 2.54
                            40 2.55  39 2.55 111 2.55 116 2.55
  74  0.111  0.056  0.196-  76 2.52  75 2.52  81 2.52  73 2.52  99 2.52 108 2.53 109 2.54  37 2.54
                           112 2.54 111 2.55  40 2.55  47 2.55
  75  0.278  0.055  0.195-  81 2.52  84 2.52  86 2.52  74 2.52  76 2.53  85 2.53 122 2.53  46 2.54
                            52 2.54  37 2.54 121 2.55 112 2.55
  76  0.278  0.222  0.196-  73 2.52  90 2.52  74 2.52  79 2.52  85 2.53  75 2.53 122 2.53  38 2.54
                            37 2.54  51 2.54 111 2.55 125 2.55
  77  0.111  0.555  0.196- 103 2.52 104 2.52  80 2.52  78 2.52  83 2.53  82 2.53 120 2.53  44 2.54
                            42 2.54  43 2.54 114 2.55 115 2.55
  78  0.111  0.389  0.196-  73 2.52  79 2.52 100 2.52  80 2.52  77 2.52 103 2.52 115 2.54 113 2.54
                            39 2.54  41 2.54  44 2.55 116 2.55
  79  0.278  0.389  0.196-  89 2.52  78 2.52  80 2.52  73 2.52  76 2.52  90 2.53  56 2.54 125 2.54
                            41 2.54  38 2.54 116 2.55 126 2.55
  80  0.278  0.555  0.196-  89 2.52  79 2.52  83 2.52  77 2.52  78 2.52  94 2.53 129 2.54 115 2.54
                            41 2.55  55 2.55  42 2.55 126 2.55
  81  0.111  0.889  0.196-  75 2.52 108 2.52  84 2.52  74 2.52 107 2.52  82 2.52 118 2.54 119 2.54
                            46 2.54  47 2.54 112 2.54  48 2.54
  82  0.111  0.722  0.196-  84 2.52 107 2.52 104 2.52  81 2.52  83 2.53  77 2.53 120 2.53  45 2.54
                            48 2.54  43 2.54 119 2.54 117 2.54
  83  0.278  0.722  0.196-  94 2.52  80 2.52  93 2.52  77 2.53  82 2.53  84 2.53 130 2.53 120 2.53
                            42 2.54 129 2.54  60 2.54  45 2.55
  84  0.278  0.889  0.195-  75 2.52  82 2.52  86 2.52  81 2.52  83 2.53  93 2.53 130 2.53  45 2.54
                            46 2.54  59 2.54 119 2.54 121 2.54
  85  0.444  0.223  0.196-  90 2.51  91 2.52 123 2.52  76 2.53  75 2.53  88 2.53  86 2.53 122 2.53
                            51 2.54  50 2.55  52 2.55 128 2.57
  86  0.444  0.055  0.195- 123 2.52  84 2.52  75 2.52  87 2.53  93 2.53  88 2.53  85 2.53  59 2.53
                            49 2.54  52 2.54 124 2.55 121 2.55
  87  0.611  0.055  0.195-  96 2.52  93 2.52  86 2.53  98 2.53  88 2.53  97 2.53 134 2.53  58 2.54
                            64 2.54  49 2.54 124 2.54 133 2.54
  88  0.611  0.222  0.196-  91 2.52 102 2.52 123 2.52  97 2.53  87 2.53  85 2.53  86 2.53 134 2.53
                            63 2.54  50 2.55  49 2.55 137 2.56
  89  0.444  0.555  0.195- 127 2.51  80 2.52  79 2.52  94 2.52  95 2.53  55 2.53  90 2.53  92 2.54
                            56 2.54  54 2.54 132 2.54 126 2.56
  90  0.444  0.388  0.196- 127 2.51  85 2.51  76 2.52  91 2.52  79 2.53  92 2.53  89 2.53  51 2.54
                            53 2.55 125 2.55  56 2.55 128 2.56
  91  0.611  0.388  0.197-  88 2.52  85 2.52 138 2.52 102 2.52  90 2.52  92 2.53 101 2.53 137 2.55
                           128 2.56  50 2.56  68 2.57  53 2.57
  92  0.611  0.555  0.195- 127 2.52 101 2.52  91 2.53 141 2.53  90 2.53 106 2.53  95 2.53  89 2.54
                            53 2.54  67 2.54 138 2.54  54 2.54
  93  0.445  0.889  0.196-  96 2.52  94 2.52  83 2.52  87 2.52 130 2.53  86 2.53  84 2.53 124 2.54
                            60 2.55  58 2.55  59 2.55 131 2.56
  94  0.444  0.722  0.196-  93 2.52  96 2.52  83 2.52  95 2.52  89 2.52  80 2.53 132 2.54 129 2.54
                           131 2.55  60 2.56  55 2.56  57 2.56
  95  0.611  0.722  0.196-  94 2.52  96 2.52 141 2.52  89 2.53 105 2.53  92 2.53 106 2.53 142 2.54
                            54 2.54  57 2.54  72 2.54 132 2.54
  96  0.611  0.889  0.196-  93 2.52  94 2.52  95 2.52  87 2.52 105 2.53  98 2.53 142 2.53 133 2.54
                            57 2.55  58 2.55  71 2.55 131 2.56
  97  0.778  0.222  0.196- 100 2.52  98 2.52 103 2.52  88 2.53 102 2.53  87 2.53 134 2.53  62 2.54
                           140 2.54  64 2.54  63 2.54 135 2.55
  98  0.778  0.056  0.196-  99 2.52  97 2.52 105 2.52 100 2.53  87 2.53  96 2.53 133 2.54  61 2.54
                            71 2.54  64 2.54 135 2.54 136 2.54
  99  0.945  0.056  0.196-  98 2.52 100 2.52  74 2.52 108 2.52  73 2.53 105 2.53 110 2.54 136 2.54
                           109 2.54  40 2.54  61 2.54  70 2.54
 100  0.945  0.222  0.196-  97 2.52  78 2.52  99 2.52 103 2.52  73 2.52  98 2.53 135 2.54 110 2.54
                            39 2.54  61 2.54 113 2.54  62 2.54
 101  0.778  0.556  0.196- 107 2.52 104 2.52  92 2.52 106 2.52 102 2.52 138 2.53  91 2.53 139 2.54
                            66 2.54  68 2.55  67 2.55 144 2.55
 102  0.778  0.389  0.196-  88 2.52  91 2.52 101 2.52  97 2.53 104 2.53 103 2.53 139 2.54 140 2.54
                            63 2.55  68 2.55  65 2.55 137 2.55
 103  0.945  0.389  0.196-  77 2.52 100 2.52  78 2.52 104 2.52  97 2.52 102 2.53 140 2.54  44 2.54
                            62 2.54 114 2.55  65 2.55 113 2.55
 104  0.945  0.556  0.196- 101 2.52  77 2.52  82 2.52 103 2.52 107 2.53 102 2.53 139 2.54 117 2.54
                            43 2.54  65 2.54  66 2.55 114 2.55
 105  0.778  0.889  0.196-  98 2.52 108 2.52 106 2.52  99 2.53  95 2.53  96 2.53 142 2.53  70 2.54
                            72 2.54  71 2.54 136 2.54 143 2.54
 106  0.778  0.722  0.196- 107 2.52 141 2.52 108 2.52 101 2.52 105 2.52  92 2.53  95 2.53  69 2.54
                            67 2.54  72 2.54 143 2.54 144 2.55
 107  0.945  0.722  0.196- 106 2.52 101 2.52  82 2.52  81 2.52 108 2.52 104 2.53 118 2.54 117 2.54
                           144 2.54  48 2.55  66 2.55  69 2.55
 108  0.945  0.889  0.196- 106 2.52  81 2.52 105 2.52  99 2.52 107 2.52  74 2.53 143 2.54 109 2.54
                           118 2.54  47 2.54  69 2.55  70 2.55
 109  0.000  0.000  0.294- 110 2.52 143 2.52 118 2.52 136 2.53 112 2.53 111 2.53  74 2.54 108 2.54
                            99 2.54
 110  0.000  0.167  0.294- 113 2.52 135 2.52 109 2.52 111 2.52 116 2.52 136 2.53  73 2.54  99 2.54
                           100 2.54
 111  0.167  0.167  0.294- 122 2.51 125 2.52 110 2.52 116 2.52 109 2.53 112 2.53  74 2.55  73 2.55
                            76 2.55
 112  0.167  1.000  0.294- 122 2.51 118 2.52 119 2.52 121 2.52 109 2.53 111 2.53  81 2.54  74 2.54
                            75 2.55
 113  0.000  0.333  0.294- 140 2.52 115 2.52 116 2.52 110 2.52 114 2.52 135 2.52  78 2.54 100 2.54
                           103 2.55
 114  0.000  0.500  0.294- 120 2.52 139 2.52 115 2.52 140 2.52 113 2.52 117 2.53 103 2.55  77 2.55
                           104 2.55
 115  0.167  0.500  0.294- 113 2.52 129 2.52 116 2.52 114 2.52 126 2.53 120 2.53  80 2.54  78 2.54
                            77 2.55
 116  0.167  0.333  0.294- 125 2.52 115 2.52 126 2.52 113 2.52 111 2.52 110 2.52  79 2.55  78 2.55
                            73 2.55
 117  0.000  0.667  0.294- 120 2.52 139 2.52 144 2.52 119 2.52 118 2.53 114 2.53 107 2.54 104 2.54
                            82 2.54
 118  0.000  0.834  0.294- 144 2.52 112 2.52 119 2.52 109 2.52 117 2.53 143 2.53 107 2.54  81 2.54
                           108 2.54
 119  0.167  0.833  0.294- 130 2.52 121 2.52 112 2.52 118 2.52 117 2.52 120 2.53  81 2.54  82 2.54
                            84 2.54
 120  0.166  0.666  0.293- 117 2.52 114 2.52 129 2.52 119 2.53 115 2.53  77 2.53 130 2.53  82 2.53
                            83 2.53
 121  0.333  1.000  0.294- 130 2.52 123 2.52 119 2.52 112 2.52 122 2.52 124 2.52  84 2.54  75 2.55
                            86 2.55
 122  0.332  0.166  0.293- 112 2.51 111 2.51 121 2.52 125 2.53  75 2.53 128 2.53  76 2.53  85 2.53
                           123 2.53
 123  0.500  0.166  0.293- 124 2.52 121 2.52  85 2.52  88 2.52  86 2.52 137 2.53 122 2.53 134 2.54
                           128 2.54
 124  0.500  0.000  0.294- 123 2.52 134 2.52 130 2.52 121 2.52 133 2.53 131 2.53  93 2.54  87 2.54
                            86 2.55
 125  0.333  0.333  0.294- 111 2.52 116 2.52 126 2.52 128 2.52 127 2.53 122 2.53  79 2.54  76 2.55
                            90 2.55
 126  0.333  0.500  0.295- 127 2.52 116 2.52 132 2.52 125 2.52 115 2.53 129 2.53  79 2.55  80 2.55
                            89 2.56
 127  0.500  0.500  0.292- 132 2.51  90 2.51  89 2.51 126 2.52  92 2.52 128 2.53 125 2.53 141 2.53
                           138 2.55
 128  0.499  0.333  0.296- 125 2.52 127 2.53 122 2.53 123 2.54 138 2.54 137 2.55  91 2.56  90 2.56
                            85 2.57
 129  0.333  0.666  0.294- 115 2.52 120 2.52 126 2.53 131 2.53 130 2.53 132 2.54  94 2.54  80 2.54
                            83 2.54
 130  0.333  0.834  0.293- 121 2.52 119 2.52 124 2.52  93 2.53  84 2.53 120 2.53  83 2.53 129 2.53
                           131 2.53
 131  0.500  0.833  0.295- 142 2.53 133 2.53 124 2.53 132 2.53 129 2.53 130 2.53  94 2.55  96 2.56
                            93 2.56
 132  0.500  0.666  0.294- 127 2.51 126 2.52 141 2.52 131 2.53 142 2.53  94 2.54 129 2.54  89 2.54
                            95 2.54
 133  0.667  0.000  0.294- 134 2.51 136 2.52 135 2.52 142 2.53 124 2.53 131 2.53  96 2.54  98 2.54
                            87 2.54
 134  0.667  0.166  0.293- 133 2.51 137 2.52 135 2.52 124 2.52  87 2.53 140 2.53  97 2.53  88 2.53
                           123 2.54
 135  0.834  0.167  0.294- 140 2.52 134 2.52 136 2.52 110 2.52 133 2.52 113 2.52 100 2.54  98 2.54
                            97 2.55
 136  0.833  1.000  0.294- 142 2.52 133 2.52 135 2.52 143 2.52 109 2.53 110 2.53  99 2.54 105 2.54
                            98 2.54
 137  0.667  0.332  0.295- 134 2.52 140 2.52 123 2.53 139 2.53 138 2.54 128 2.55 102 2.55  91 2.55
                            88 2.56
 138  0.668  0.500  0.294-  91 2.52 139 2.52 144 2.52 101 2.53 141 2.53 128 2.54 137 2.54  92 2.54
                           127 2.55
 139  0.834  0.500  0.294- 114 2.52 138 2.52 117 2.52 140 2.53 144 2.53 137 2.53 102 2.54 104 2.54
                           101 2.54
 140  0.834  0.333  0.294- 113 2.52 135 2.52 137 2.52 114 2.52 134 2.53 139 2.53 103 2.54  97 2.54
                           102 2.54
 141  0.667  0.667  0.293- 106 2.52 142 2.52 132 2.52 143 2.52 144 2.52  95 2.52  92 2.53 138 2.53
                           127 2.53
 142  0.667  0.833  0.293- 143 2.52 136 2.52 141 2.52 133 2.53 131 2.53 105 2.53  96 2.53 132 2.53
                            95 2.54
 143  0.834  0.834  0.294- 142 2.52 136 2.52 144 2.52 109 2.52 141 2.52 118 2.53 108 2.54 106 2.54
                           105 2.54
 144  0.834  0.667  0.295- 118 2.52 143 2.52 117 2.52 138 2.52 141 2.52 139 2.53 107 2.54 106 2.55
                           101 2.55
 145  0.754  0.664  0.453- 153 1.23
 146  0.254  0.712  0.449- 172 1.10 173 1.10 171 1.11 147 1.50
 147  0.350  0.708  0.444- 148 1.40 152 1.42 146 1.50
 148  0.445  0.795  0.433- 165 1.09 149 1.40 147 1.40
 149  0.536  0.793  0.431- 166 1.09 148 1.40 150 1.41
 150  0.535  0.701  0.444- 151 1.40 162 1.40 149 1.41
 151  0.442  0.613  0.457- 167 1.09 150 1.40 152 1.41
 152  0.349  0.615  0.455- 161 1.38 151 1.41 147 1.42
 153  0.663  0.635  0.445- 145 1.23 163 1.38 162 1.40
 154  0.693  0.451  0.434- 182 1.09 155 1.40 159 1.41
 155  0.693  0.358  0.438- 175 1.09 156 1.40 154 1.40
 156  0.604  0.263  0.440- 155 1.40 157 1.42 160 1.50
 157  0.509  0.261  0.435- 164 1.38 158 1.41 156 1.42
 158  0.508  0.354  0.430- 176 1.09 157 1.41 159 1.41
 159  0.599  0.448  0.432- 163 1.40 154 1.41 158 1.41
 160  0.605  0.166  0.449- 179 1.10 177 1.10 178 1.11 156 1.50
 161  0.259  0.527  0.469- 169 1.01 168 1.02 152 1.38
 162  0.630  0.706  0.446- 170 1.02 153 1.40 150 1.40
 163  0.589  0.535  0.433- 174 1.02 153 1.38 159 1.40
 164  0.418  0.170  0.439- 180 1.02 181 1.02 157 1.38
 165  0.447  0.867  0.425- 148 1.09
 166  0.608  0.862  0.423- 149 1.09
 167  0.438  0.543  0.473- 151 1.09
 168  0.194  0.525  0.454- 161 1.02
 169  0.257  0.460  0.462- 161 1.01
 170  0.692  0.778  0.446- 162 1.02
 171  0.195  0.658  0.416- 146 1.11
 172  0.267  0.788  0.438- 146 1.10
 173  0.222  0.692  0.497- 146 1.10
 174  0.521  0.524  0.417- 163 1.02
 175  0.766  0.360  0.441- 155 1.09
 176  0.435  0.352  0.429- 158 1.09
 177  0.565  0.127  0.493- 160 1.10
 178  0.568  0.112  0.410- 160 1.11
 179  0.684  0.181  0.452- 160 1.10
 180  0.420  0.106  0.425- 164 1.02
 181  0.355  0.170  0.423- 164 1.02
 182  0.764  0.524  0.436- 154 1.09
 
  LATTYP: Found a hexagonal cell.
 ALAT       =    15.1479005815
 C/A-ratio  =     1.3984776241
  
  Lattice vectors:
  
 A1 = (  15.1479005814,   0.0000000000,   0.0000000000)
 A2 = (  -7.5739502907,  13.1184667176,   0.0000000000)
 A3 = (   0.0000000000,   0.0000000000,  21.1840000153)


Analysis of symmetry for initial positions (statically):
=====================================================================
 Subroutine PRICEL returns:
 Original cell was already a primitive cell.
 

 Routine SETGRP: Setting up the symmetry group for a 
 hexagonal supercell.


 Subroutine GETGRP returns: Found  1 space group operations
 (whereof  1 operations were pure point group operations)
 out of a pool of 24 trial point group operations.


The static configuration has the point symmetry C_1 .


Analysis of symmetry for dynamics (positions and initial velocities):
=====================================================================
 Subroutine PRICEL returns:
 Original cell was already a primitive cell.
 

 Routine SETGRP: Setting up the symmetry group for a 
 hexagonal supercell.


 Subroutine GETGRP returns: Found  1 space group operations
 (whereof  1 operations were pure point group operations)
 out of a pool of 24 trial point group operations.


The dynamic configuration has the point symmetry C_1 .


Analysis of constrained symmetry for selective dynamics:
=====================================================================
 Subroutine PRICEL returns:
 Original cell was already a primitive cell.
 

 Routine SETGRP: Setting up the symmetry group for a 
 hexagonal supercell.


 Subroutine GETGRP returns: Found  1 space group operations
 (whereof  1 operations were pure point group operations)
 out of a pool of 24 trial point group operations.


The constrained configuration has the point symmetry C_1 .


 Subroutine INISYM returns: Found  1 space group operations
 (whereof  1 operations are pure point group operations),
 and found     1 'primitive' translations

 
 
 KPOINTS: K-POINTS                                

Automatic generation of k-mesh.
Space group operators:
 irot       det(A)        alpha          n_x          n_y          n_z        tau_x        tau_y        tau_z
    1     1.000000     0.000001     1.000000     0.000000     0.000000     0.000000     0.000000     0.000000
 
 Subroutine IBZKPT returns following result:
 ===========================================
 
 Found      5 irreducible k-points:
 
 Following reciprocal coordinates:
            Coordinates               Weight
  0.000000  0.000000  0.000000      1.000000
  0.333333 -0.000000  0.000000      2.000000
  0.000000  0.333333  0.000000      2.000000
  0.333333  0.333333  0.000000      2.000000
 -0.333333  0.333333  0.000000      2.000000
 
 Following cartesian coordinates:
            Coordinates               Weight
  0.000000  0.000000  0.000000      1.000000
  0.022005  0.012705  0.000000      2.000000
  0.000000  0.025409  0.000000      2.000000
  0.022005  0.038114  0.000000      2.000000
 -0.022005  0.012705  0.000000      2.000000
 


--------------------------------------------------------------------------------------------------------




 Dimension of arrays:
   k-points           NKPTS =      5   k-points in BZ     NKDIM =      5   number of bands    NBANDS=   1056
   number of dos      NEDOS =    301   number of ions     NIONS =    182
   non local maximal  LDIM  =      6   non local SUM 2l+1 LMDIM =     18
   total plane-waves  NPLWV = 716800
   max r-space proj   IRMAX =   2102   max aug-charges    IRDMAX=   5131
   dimension x,y,z NGX =    80 NGY =   80 NGZ =  112
   dimension x,y,z NGXF=   160 NGYF=  160 NGZF=  224
   support grid    NGXF=   160 NGYF=  160 NGZF=  224
   ions per type =             144   1  15   4  18
   NGX,Y,Z   is equivalent  to a cutoff of   8.78,  8.78,  8.79 a.u.
   NGXF,Y,Z  is equivalent  to a cutoff of  17.56, 17.56, 17.58 a.u.

 SYSTEM =  x                                       
 POSCAR =  Cu  O  C  N  H                          

 Startparameter for this run:
   NWRITE =      0    write-flag & timer
   PREC   = normal    normal or accurate (medium, high low for compatibility)
   ISTART =      0    job   : 0-new  1-cont  2-samecut
   ICHARG =      2    charge: 1-file 2-atom 10-const
   ISPIN  =      1    spin polarized calculation?
   LNONCOLLINEAR =      F non collinear calculations
   LSORBIT =      F    spin-orbit coupling
   INIWAV =      1    electr: 0-lowe 1-rand  2-diag
   LASPH  =      F    aspherical Exc in radial PAW
   METAGGA=      F    non-selfconsistent MetaGGA calc.

 Electronic Relaxation 1
   ENCUT  =  450.0 eV  33.07 Ry    5.75 a.u.  26.20 26.20 36.64*2*pi/ulx,y,z
   ENINI  =  450.0     initial cutoff
   ENAUG  =  644.9 eV  augmentation charge cutoff
   NELM   =     50;   NELMIN=  5; NELMDL= -7     # of ELM steps 
   EDIFF  = 0.1E-04   stopping-criterion for ELM
   LREAL  =      T    real-space projection
   NLSPLINE    = F    spline interpolate recip. space projectors
   LCOMPAT=      F    compatible to vasp.4.4
   GGA_COMPAT  = T    GGA compatible to vasp.4.4-vasp.4.6
   LMAXPAW     = -100 max onsite density
   LMAXMIX     =    2 max onsite mixed and CHGCAR
   VOSKOWN=      0    Vosko Wilk Nusair interpolation
   ROPT   =   -0.00050  -0.00050  -0.00050  -0.00050
   ROPT   =   -0.00050
 Ionic relaxation
   EDIFFG = -.2E-01   stopping-criterion for IOM
   NSW    =    300    number of steps for IOM
   NBLOCK =      1;   KBLOCK =    300    inner block; outer block 
   IBRION =      2    ionic relax: 0-MD 1-quasi-New 2-CG
   NFREE  =      2    steps in history (QN), initial steepest desc. (CG)
   ISIF   =      2    stress and relaxation
   IWAVPR =     11    prediction:  0-non 1-charg 2-wave 3-comb
   ISYM   =      2    0-nonsym 1-usesym 2-fastsym
   LCORR  =      T    Harris-Foulkes like correction to forces

   POTIM  = 0.1500    time-step for ionic-motion
   TEIN   =    0.0    initial temperature
   TEBEG  =    0.0;   TEEND  =   0.0 temperature during run
   SMASS  =  -3.00    Nose mass-parameter (am)
   estimated Nose-frequenzy (Omega)   =  0.10E-29 period in steps =****** mass=  -0.524E-26a.u.
   SCALEE = 1.0000    scale energy and forces
   NPACO  =    256;   APACO  = 16.0  distance and # of slots for P.C.
   PSTRESS=    0.0 pullay stress

  Mass of Ions in am
   POMASS =  63.55 16.00 12.01 14.00  1.00
  Ionic Valenz
   ZVAL   =  11.00  6.00  4.00  5.00  1.00
  Atomic Wigner-Seitz radii
   RWIGS  =  -1.00 -1.00 -1.00 -1.00 -1.00
  virtual crystal weights 
   VCA    =   1.00  1.00  1.00  1.00  1.00
   NELECT =    1688.0000    total number of electrons
   NUPDOWN=      -1.0000    fix difference up-down

 DOS related values:
   EMIN   =  10.00;   EMAX   =-10.00  energy-range for DOS
   EFERMI =   0.00
   ISMEAR =     0;   SIGMA  =   0.03  broadening in eV -4-tet -1-fermi 0-gaus

 Electronic relaxation 2 (details)
   IALGO  =     68    algorithm
   LDIAG  =      T    sub-space diagonalisation (order eigenvalues)
   LSUBROT=      F    optimize rotation matrix (better conditioning)
   TURBO    =      0    0=normal 1=particle mesh
   IRESTART =      0    0=no restart 2=restart with 2 vectors
   NREBOOT  =      0    no. of reboots
   NMIN     =      0    reboot dimension
   EREF     =   0.00    reference energy to select bands
   IMIX   =      4    mixing-type and parameters
     AMIX     =   0.40;   BMIX     =  1.00
     AMIX_MAG =   1.60;   BMIX_MAG =  1.00
     AMIN     =   0.10
     WC   =   100.;   INIMIX=   1;  MIXPRE=   1;  MAXMIX= -45

 Intra band minimization:
   WEIMIN = 0.0010     energy-eigenvalue tresh-hold
   EBREAK =  0.24E-08  absolut break condition
   DEPER  =   0.30     relativ break condition  

   TIME   =   0.40     timestep for ELM

  volume/ion in A,a.u.               =      23.13       156.09
  Fermi-wavevector in a.u.,A,eV,Ry     =   1.207215  2.281305 19.828683  1.457367
  Thomas-Fermi vector in A             =   2.342859
 
 Write flags
   LWAVE        =      F    write WAVECAR
   LDOWNSAMPLE  =      F    k-point downsampling of WAVECAR
   LCHARG       =      F    write CHGCAR
   LVTOT        =      F    write LOCPOT, total local potential
   LVHAR        =      F    write LOCPOT, Hartree potential only
   LELF         =      F    write electronic localiz. function (ELF)
   LORBIT       =      0    0 simple, 1 ext, 2 COOP (PROOUT), +10 PAW based schemes


 Dipole corrections
   LMONO  =      F    monopole corrections only (constant potential shift)
   LDIPOL =      T    correct potential (dipole corrections)
   IDIPOL =      3    1-x, 2-y, 3-z, 4-all directions 
   EPSILON=  1.0000000 bulk dielectric constant

 Exchange correlation treatment:
   GGA     =    PE    GGA type
   LEXCH   =     8    internal setting for exchange type
   VOSKOWN=      0    Vosko Wilk Nusair interpolation
   LHFCALC =     F    Hartree Fock is set to
   LHFONE  =     F    Hartree Fock one center treatment
   AEXX    =    0.0000 exact exchange contribution

 Linear response parameters
   LEPSILON=     F    determine dielectric tensor
   LRPA    =     F    only Hartree local field effects (RPA)
   LNABLA  =     F    use nabla operator in PAW spheres
   LVEL    =     F    velocity operator in full k-point grid
   LINTERFAST=   F  fast interpolation
   KINTER  =     0    interpolate to denser k-point grid
   CSHIFT  =0.1000    complex shift for real part using Kramers Kronig
   OMEGAMAX=  -1.0    maximum frequency
   DEG_THRESHOLD= 0.2000000E-02 threshold for treating states as degnerate
   RTIME   =   -0.100 relaxation time in fs
  (WPLASMAI=    0.000 imaginary part of plasma frequency in eV, 0.658/RTIME)
   DFIELD  = 0.0000000 0.0000000 0.0000000 field for delta impulse in time
 
 Orbital magnetization related:
   ORBITALMAG=     F  switch on orbital magnetization
   LCHIMAG   =     F  perturbation theory with respect to B field
   DQ        =  0.001000  dq finite difference perturbation B field
   LLRAUG    =     F  two centre corrections for induced B field



--------------------------------------------------------------------------------------------------------


 conjugate gradient relaxation of ions
   using selective dynamics as specified on POSCAR
 charge density and potential will be updated during run
 non-spin polarized calculation
 RMM-DIIS sequential band-by-band and
  variant of blocked Davidson during initial phase
 perform sub-space diagonalisation
    before iterative eigenvector-optimisation
 modified Broyden-mixing scheme, WC =      100.0
 initial mixing is a Kerker type mixing with AMIX =  0.4000 and BMIX =      1.0000
 Hartree-type preconditioning will be used
 using additional bands          212
 real space projection scheme for non local part
 use partial core corrections
 calculate Harris-corrections to forces 
   (improved forces if not selfconsistent)
 use gradient corrections 
 use of overlap-Matrix (Vanderbilt PP)
 Gauss-broadening in eV      SIGMA  =   0.03


--------------------------------------------------------------------------------------------------------


  energy-cutoff  :      450.00
  volume of cell :     4209.63
      direct lattice vectors                 reciprocal lattice vectors
    15.147900581  0.000000000  0.000000000     0.066015749  0.038114210  0.000000000
    -7.573950291 13.118466718  0.000000000     0.000000000  0.076228421  0.000000000
     0.000000000  0.000000000 21.184000015     0.000000000  0.000000000  0.047205438

  length of vectors
    15.147900581 15.147900581 21.184000015     0.076228421  0.076228421  0.047205438


 
 k-points in units of 2pi/SCALE and weight: K-POINTS                                
   0.00000000  0.00000000  0.00000000       0.111
   0.02200525  0.01270474  0.00000000       0.222
   0.00000000  0.02540947  0.00000000       0.222
   0.02200525  0.03811421  0.00000000       0.222
  -0.02200525  0.01270474  0.00000000       0.222
 
 k-points in reciprocal lattice and weights: K-POINTS                                
   0.00000000  0.00000000  0.00000000       0.111
   0.33333333 -0.00000000  0.00000000       0.222
   0.00000000  0.33333333  0.00000000       0.222
   0.33333333  0.33333333  0.00000000       0.222
  -0.33333333  0.33333333  0.00000000       0.222
 
 position of ions in fractional coordinates (direct lattice) 
   0.00000000  0.00000000  0.00000000
   0.00000000  0.16666667  0.00000000
   0.16666667  0.16666667  0.00000000
   0.16666667  0.00000000  0.00000000
   0.00000000  0.33333333  0.00000000
   0.00000000  0.50000000  0.00000000
   0.16666667  0.50000000  0.00000000
   0.16666667  0.33333333  0.00000000
   0.00000000  0.66666667  0.00000000
   0.00000000  0.83333333  0.00000000
   0.16666667  0.83333333  0.00000000
   0.16666667  0.66666667  0.00000000
   0.33333333  0.00000000  0.00000000
   0.33333333  0.16666667  0.00000000
   0.50000000  0.16666667  0.00000000
   0.50000000  0.00000000  0.00000000
   0.33333333  0.33333333  0.00000000
   0.33333333  0.50000000  0.00000000
   0.50000000  0.50000000  0.00000000
   0.50000000  0.33333333  0.00000000
   0.33333333  0.66666667  0.00000000
   0.33333333  0.83333333  0.00000000
   0.50000000  0.83333333  0.00000000
   0.50000000  0.66666667  0.00000000
   0.66666667  0.00000000  0.00000000
   0.66666667  0.16666667  0.00000000
   0.83333333  0.16666667  0.00000000
   0.83333333  0.00000000  0.00000000
   0.66666667  0.33333333  0.00000000
   0.66666667  0.50000000  0.00000000
   0.83333333  0.50000000  0.00000000
   0.83333333  0.33333333  0.00000000
   0.66666667  0.66666667  0.00000000
   0.66666667  0.83333333  0.00000000
   0.83333333  0.83333333  0.00000000
   0.83333333  0.66666667  0.00000000
   0.22222334  0.11111000  0.09731000
   0.22222334  0.27777666  0.09731000
   0.05555666  0.27777666  0.09731000
   0.05555666  0.11111000  0.09731000
   0.22222334  0.44444334  0.09731000
   0.22222334  0.61110999  0.09731000
   0.05555666  0.61110999  0.09731000
   0.05555666  0.44444334  0.09731000
   0.22222334  0.77777667  0.09731000
   0.22222334  0.94444333  0.09731000
   0.05555666  0.94444333  0.09731000
   0.05555666  0.77777667  0.09731000
   0.55555667  0.11111000  0.09731000
   0.55555667  0.27777666  0.09731000
   0.38889000  0.27777666  0.09731000
   0.38889000  0.11111000  0.09731000
   0.55555667  0.44444334  0.09731000
   0.55555667  0.61110999  0.09731000
   0.38889000  0.61110999  0.09731000
   0.38889000  0.44444334  0.09731000
   0.55555667  0.77777667  0.09731000
   0.55555667  0.94444333  0.09731000
   0.38889000  0.94444333  0.09731000
   0.38889000  0.77777667  0.09731000
   0.88889001  0.11111000  0.09731000
   0.88889001  0.27777666  0.09731000
   0.72222333  0.27777666  0.09731000
   0.72222333  0.11111000  0.09731000
   0.88889001  0.44444334  0.09731000
   0.88889001  0.61110999  0.09731000
   0.72222333  0.61110999  0.09731000
   0.72222333  0.44444334  0.09731000
   0.88889001  0.77777667  0.09731000
   0.88889001  0.94444333  0.09731000
   0.72222333  0.94444333  0.09731000
   0.72222333  0.77777667  0.09731000
   0.11130104  0.22231052  0.19576259
   0.11126259  0.05564223  0.19580663
   0.27775256  0.05537521  0.19539232
   0.27764094  0.22224527  0.19552849
   0.11110729  0.55533507  0.19561228
   0.11121959  0.38875639  0.19576492
   0.27779712  0.38891950  0.19574129
   0.27776621  0.55543751  0.19593658
   0.11116979  0.88895940  0.19568894
   0.11115600  0.72227133  0.19555331
   0.27781557  0.72206977  0.19575278
   0.27770234  0.88881911  0.19541974
   0.44448795  0.22250724  0.19588790
   0.44432505  0.05530999  0.19526998
   0.61108254  0.05543487  0.19544903
   0.61142699  0.22243603  0.19585353
   0.44411193  0.55549405  0.19529575
   0.44438536  0.38828664  0.19580092
   0.61098788  0.38835173  0.19697603
   0.61135146  0.55523207  0.19540211
   0.44463833  0.88855460  0.19599216
   0.44442237  0.72223731  0.19642880
   0.61091635  0.72211186  0.19551625
   0.61086269  0.88869429  0.19594033
   0.77802863  0.22216404  0.19553534
   0.77793755  0.05551152  0.19555127
   0.94457439  0.05562171  0.19572311
   0.94461550  0.22224579  0.19572343
   0.77815182  0.55567078  0.19588517
   0.77766339  0.38876591  0.19613824
   0.94463851  0.38886468  0.19570522
   0.94462133  0.55550695  0.19577333
   0.77787216  0.88886236  0.19554699
   0.77822137  0.72234894  0.19561087
   0.94456698  0.72224123  0.19588485
   0.94458275  0.88893771  0.19579027
   0.00020596  0.00007521  0.29399321
   0.00027507  0.16670681  0.29397803
   0.16692516  0.16678836  0.29428454
   0.16684132  0.99991577  0.29416101
   0.00034675  0.33320541  0.29425306
   0.00022571  0.49980451  0.29426260
   0.16655393  0.49961508  0.29421725
   0.16689205  0.33340727  0.29438936
   0.00022172  0.66671885  0.29408227
   0.00034356  0.83350370  0.29404075
   0.16683228  0.83342358  0.29389679
   0.16616465  0.66631375  0.29338999
   0.33333177  0.99985426  0.29388339
   0.33246935  0.16595715  0.29320188
   0.49967155  0.16595478  0.29262312
   0.50003338  0.00002541  0.29383352
   0.33287107  0.33308875  0.29425560
   0.33333653  0.49972339  0.29460168
   0.49957340  0.50001234  0.29201830
   0.49931800  0.33318963  0.29580179
   0.33266385  0.66614586  0.29428389
   0.33321441  0.83362950  0.29333943
   0.50014267  0.83297750  0.29527057
   0.50003930  0.66580990  0.29394930
   0.66710908  0.00011615  0.29372877
   0.66711279  0.16591477  0.29325642
   0.83370660  0.16650195  0.29400914
   0.83341181  0.99990202  0.29399027
   0.66739795  0.33231657  0.29545018
   0.66771175  0.50020327  0.29357582
   0.83405231  0.50005091  0.29398552
   0.83408049  0.33292342  0.29387873
   0.66706192  0.66680821  0.29268514
   0.66716984  0.83334428  0.29343992
   0.83356217  0.83352390  0.29403442
   0.83389265  0.66716534  0.29454648
   0.75438007  0.66365052  0.45343562
   0.25398991  0.71202079  0.44937486
   0.35041803  0.70758271  0.44431548
   0.44475790  0.79464736  0.43268541
   0.53596009  0.79250269  0.43107297
   0.53530055  0.70071655  0.44432517
   0.44166460  0.61285712  0.45695090
   0.34948048  0.61483918  0.45527294
   0.66342037  0.63491168  0.44476075
   0.69340828  0.45100636  0.43428131
   0.69292279  0.35820512  0.43778331
   0.60361768  0.26331026  0.43971491
   0.50898299  0.26137554  0.43519603
   0.50820183  0.35368991  0.42998820
   0.59941166  0.44841337  0.43249072
   0.60549392  0.16614058  0.44920064
   0.25886157  0.52713681  0.46859685
   0.63039796  0.70601320  0.44599200
   0.58911386  0.53548677  0.43262921
   0.41823060  0.16996963  0.43923734
   0.44709473  0.86715733  0.42500626
   0.60827598  0.86236554  0.42267035
   0.43757036  0.54263063  0.47313771
   0.19407554  0.52511012  0.45377977
   0.25741592  0.46011394  0.46171919
   0.69174583  0.77771879  0.44566663
   0.19472371  0.65839199  0.41624739
   0.26745239  0.78848586  0.43796985
   0.22152443  0.69154075  0.49733033
   0.52083475  0.52440742  0.41657440
   0.76580463  0.36010786  0.44079552
   0.43508776  0.35156827  0.42923345
   0.56485245  0.12721361  0.49286582
   0.56783740  0.11203244  0.40971018
   0.68408572  0.18080478  0.45198389
   0.41985479  0.10646584  0.42529509
   0.35494817  0.17028234  0.42318640
   0.76407987  0.52358424  0.43588192
 
 position of ions in cartesian coordinates  (Angst):
   0.00000000  0.00000000  0.00000000
  -1.26232505  2.18641112  0.00000000
   1.26232505  2.18641112  0.00000000
   2.52465010  0.00000000  0.00000000
  -2.52465010  4.37282224  0.00000000
  -3.78697515  6.55923336  0.00000000
  -1.26232505  6.55923336  0.00000000
  -0.00000000  4.37282224  0.00000000
  -5.04930019  8.74564448  0.00000000
  -6.31162524 10.93205560  0.00000000
  -3.78697515 10.93205560  0.00000000
  -2.52465010  8.74564448  0.00000000
   5.04930019  0.00000000  0.00000000
   3.78697515  2.18641112  0.00000000
   6.31162524  2.18641112  0.00000000
   7.57395029  0.00000000  0.00000000
   2.52465010  4.37282224  0.00000000
   1.26232505  6.55923336  0.00000000
   3.78697515  6.55923336  0.00000000
   5.04930019  4.37282224  0.00000000
   0.00000000  8.74564448  0.00000000
  -1.26232505 10.93205560  0.00000000
   1.26232505 10.93205560  0.00000000
   2.52465010  8.74564448  0.00000000
  10.09860039  0.00000000  0.00000000
   8.83627534  2.18641112  0.00000000
  11.36092544  2.18641112  0.00000000
  12.62325048  0.00000000  0.00000000
   7.57395029  4.37282224  0.00000000
   6.31162524  6.55923336  0.00000000
   8.83627534  6.55923336  0.00000000
  10.09860039  4.37282224  0.00000000
   5.04930019  8.74564448  0.00000000
   3.78697515 10.93205560  0.00000000
   6.31162524 10.93205560  0.00000000
   7.57395029  8.74564448  0.00000000
   2.52467545  1.45759286  2.06141502
   1.26235048  3.64400385  2.06141502
  -1.26229977  3.64400385  2.06141502
   0.00002521  1.45759286  2.06141502
   0.00002536  5.83041510  2.06141502
  -1.26229962  8.01682609  2.06141502
  -3.78694986  8.01682609  2.06141502
  -2.52462489  5.83041510  2.06141502
  -2.52462474 10.20323734  2.06141502
  -3.78694972 12.38964833  2.06141502
  -6.31159996 12.38964833  2.06141502
  -5.04927499 10.20323734  2.06141502
   7.57397565  1.45759286  2.06141502
   6.31165067  3.64400385  2.06141502
   3.78700043  3.64400385  2.06141502
   5.04932540  1.45759286  2.06141502
   5.04932555  5.83041510  2.06141502
   3.78700057  8.01682609  2.06141502
   1.26235033  8.01682609  2.06141502
   2.52467531  5.83041510  2.06141502
   2.52467545 10.20323734  2.06141502
   1.26235048 12.38964833  2.06141502
  -1.26229977 12.38964833  2.06141502
   0.00002521 10.20323734  2.06141502
  12.62327584  1.45759286  2.06141502
  11.36095086  3.64400385  2.06141502
   8.83630062  3.64400385  2.06141502
  10.09862560  1.45759286  2.06141502
  10.09862574  5.83041510  2.06141502
   8.83630077  8.01682609  2.06141502
   6.31165052  8.01682609  2.06141502
   7.57397550  5.83041510  2.06141502
   7.57397565 10.20323734  2.06141502
   6.31165067 12.38964833  2.06141502
   3.78700043 12.38964833  2.06141502
   5.04932540 10.20323734  2.06141502
   0.00220833  2.91637310  4.14703479
   1.26396325  0.72994070  4.14796761
   3.78795914  0.72643786  4.13919090
   2.52240277  2.91551721  4.14207558
  -2.52303803  7.28514461  4.14385062
  -1.25967836  5.09988781  4.14708404
   1.26238623  5.10202749  4.14658350
   0.00071877  7.28648850  4.15072052
  -5.04894545 11.66178435  4.14547460
  -3.78666709  9.47509247  4.14260141
  -1.26059798  9.47244828  4.14682686
  -2.52526436 11.65994388  4.13977183
   5.04780047  2.91895388  4.14968921
   6.31167659  0.72558223  4.13659935
   8.83675663  0.72722055  4.14039220
   7.57711585  2.91801969  4.14896115
   2.52007901  7.28723021  4.13714511
   3.79064145  5.09372542  4.14784679
   6.31382690  5.09457931  4.17274020
   5.05539101  7.28379341  4.13939830
   0.00546884 11.65647398  4.15189785
   1.26187645  9.47464612  4.16114767
   3.78486079  9.47300036  4.14181624
   2.52236085 11.65830649  4.15079986
  10.10284093  2.91445150  4.14222054
  11.36367921  0.72822599  4.14255803
  13.88704286  0.72967157  4.14619829
  12.62566311  2.91552394  4.14620507
   7.57874353  7.28954862  4.14963141
   8.83547399  5.10001268  4.15499248
  11.36404850  5.10130839  4.14581931
  10.10164804  7.28739944  4.14726223
   5.05093083 11.66051133  4.14246745
   6.31738493  9.47611048  4.14382073
   8.83798750  9.47469757  4.14962476
   7.57567561 11.66149980  4.14762103
   0.00255024  0.00098661  6.22795216
  -1.25846238  2.18693779  6.22763063
   1.26531895  2.18800755  6.23412376
  -5.04601664 13.11736173  6.23150692
  -2.51842866  4.37114413  6.23345688
  -3.78207548  6.55666885  6.23365899
  -1.26111740  6.55418384  6.23269813
   0.00285401  4.37379219  6.23634424
  -5.04633678  8.74632903  6.22983880
  -6.30771138 10.93429049  6.22895924
  -3.78515001 10.93323950  6.22590958
  -2.52958159  8.74101470  6.21517362
  -2.52357001 13.11655485  6.22562568
   3.77926147  2.17710341  6.21118864
   6.31204171  2.17707229  6.19892826
   7.57426348  0.00033339  6.22456937
   2.51950023  4.36961373  6.23351068
   1.26446848  6.55560463  6.24084200
   3.78041960  6.55939528  6.18611570
   5.04005776  4.37093706  6.26626507
  -0.00619668  8.73881226  6.23410992
  -1.26636967 10.93594087  6.21410259
   1.26718127 10.92738763  6.25501177
   2.53173456  8.73440495  6.22702191
  10.10442239  0.00152368  6.22235022
   8.84872796  2.17654745  6.21234401
  11.36782727  2.18425024  6.22828955
   5.05123103 13.11718138  6.22788986
   7.59272864  4.35948390  6.25881659
   6.32591649  6.56189991  6.21911020
   8.84678077  6.55990119  6.22778926
  10.11302292  4.36744476  6.22552696
   5.05421539  8.74750127  6.20024206
   3.79451423 10.93219918  6.21623127
   6.31364832 10.93455549  6.22882512
   7.57864587  8.75218636  6.23967256
   6.40081825  8.70607730  9.60558011
  -1.54539621  9.34062103  9.51955697
  -0.05109885  9.28240026  9.41237910
   0.71852890 10.42455494  9.16600771
   2.11629416 10.39642016  9.13184986
   2.80148720  9.19232668  9.41258450
   2.04854215  8.03974572  9.68004797
   0.63713428  8.06574727  9.64450188
   5.24063635  8.32906778  9.42181170
   7.08777999  5.91651191  9.19981517
   7.78329776  4.69910200  9.27400167
   7.14924186  3.45422687  9.31492066
   5.73037834  3.42884636  9.21919263
   5.01936097  4.63986930  9.10887006
   5.68356767  5.88249586  9.16188350
   7.91362122  2.17950963  9.51586646
  -0.07129864  6.91522666  9.92675572
   4.20189675  9.26181067  9.44789455
   4.86808797  7.02476538  9.16481709
   5.04797396  2.22974095  9.30480389
   0.20473999 11.37577457  9.00333252
   2.68259027 11.31291368  8.95384877
   2.51841488  7.11848185 10.02294925
  -1.03732090  6.88863957  9.61287063
   0.41443071  6.03598937  9.78105933
   4.58809358 10.20247805  9.44100197
  -2.03697288  8.63709346  8.81778479
  -1.92061053 10.34372551  9.27795341
  -1.88206518  9.07195425 10.53544566
   3.91771732  6.87942123  8.82471207
   8.87289340  4.72406295  9.33781232
   3.92790559  4.61203663  9.09288144
   7.59281914  1.66884748 10.44086954
   7.75301641  1.46969386  8.67930037
   8.99305607  2.37188155  9.57482682
   5.55355160  1.39666858  9.00945113
   4.08700967  2.23384323  8.96478066
   7.60860491  6.86862245  9.23372252
 


--------------------------------------------------------------------------------------------------------


 k-point  1 :   0.0000 0.0000 0.0000  plane waves:   91267
 k-point  2 :   0.3333-0.0000 0.0000  plane waves:   91252
 k-point  3 :   0.0000 0.3333 0.0000  plane waves:   91252
 k-point  4 :   0.3333 0.3333 0.0000  plane waves:   91296
 k-point  5 :  -0.3333 0.3333 0.0000  plane waves:   91252

 maximum and minimum number of plane-waves per node :     91296    91252

 maximum number of plane-waves:     91296
 maximum index in each direction: 
   IXMAX=   26   IYMAX=   26   IZMAX=   36
   IXMIN=  -26   IYMIN=  -26   IZMIN=  -36


 serial   3D FFT for wavefunctions
 parallel 3D FFT for charge:
    minimum data exchange during FFTs selected (reduces bandwidth)


 total amount of memory used by VASP MPI-rank0   301272. kBytes
=======================================================================

   base      :      30000. kBytes
   nonlr-proj:      54800. kBytes
   fftplans  :       7568. kBytes
   grid      :      40325. kBytes
   one-center:       2830. kBytes
   wavefun   :     165749. kBytes
 
     INWAV:  cpu time    0.0000: real time    0.0004
 Broyden mixing: mesh for mixing (old mesh)
   NGX = 53   NGY = 53   NGZ = 73
  (NGX  =160   NGY  =160   NGZ  =224)
  gives a total of 205057 points

 initial charge density was supplied:
 charge density of overlapping atoms calculated
 number of electron    1688.0000000 magnetization 
 keeping initial charge density in first step


--------------------------------------------------------------------------------------------------------


 Maximum index for non-local projection operator         2016
 Maximum index for augmentation-charges          319 (set IRDMAX)


--------------------------------------------------------------------------------------------------------


 First call to EWALD:  gamma=   0.110
 Maximum number of real-space cells 3x 3x 2
 Maximum number of reciprocal cells 3x 3x 3

    FEWALD:  cpu time    0.0070: real time    0.0070


--------------------------------------- Iteration      1(   1)  ---------------------------------------


    POTLOK:  cpu time    0.1208: real time    0.1389
    SETDIJ:  cpu time    0.0134: real time    0.0200
     EDDAV:  cpu time   53.9662: real time   54.0277
       DOS:  cpu time    0.0015: real time    0.0036
    --------------------------------------------
      LOOP:  cpu time   54.1020: real time   54.1902

 eigenvalue-minimisations  : 10560
 total energy-change (2. order) : 0.1666155E+05  (-0.6541448E+05)
 number of electron    1688.0000000 magnetization 
 augmentation part     1688.0000000 magnetization 

 DIPCOR: dipole corrections for dipol
 direction  3 min pos   152,
 dipolmoment           0.000000      0.000000     -0.004346 electrons x Angstroem
 Tr[quadrupol]    -67697.841647

 energy correction for charged system         0.000000 eV
 dipol+quadrupol energy correction           -0.000000 eV
 added-field ion interaction         -0.061056 eV  (added to PSCEN)


 Free energy of the ion-electron system (eV)
  ---------------------------------------------------
  alpha Z        PSCENC =      4023.83341695
  Ewald energy   TEWEN  =    577051.50965863
  -Hartree energ DENC   =   -774983.51789147
  -exchange      EXHF   =         0.00000000
  -V(xc)+E(xc)   XCENC  =      6918.37472209
  PAW double counting   =    179694.28261536  -194950.76635334
  entropy T*S    EENTRO =        -0.02203447
  eigenvalues    EBANDS =     14685.70577849
  atomic energy  EATOM  =    204222.15008807
  Solvation  Ediel_sol  =         0.00000000
  ---------------------------------------------------
  free energy    TOTEN  =     16661.55000031 eV

  energy without entropy =    16661.57203478  energy(sigma->0) =    16661.56101755


--------------------------------------------------------------------------------------------------------




--------------------------------------- Iteration      1(   2)  ---------------------------------------


     EDDAV:  cpu time   54.0996: real time   54.1197
       DOS:  cpu time    0.0012: real time    0.0012
    --------------------------------------------
      LOOP:  cpu time   54.1009: real time   54.1209

 eigenvalue-minimisations  : 10560
 total energy-change (2. order) :-0.1441741E+05  (-0.1381781E+05)
 number of electron    1688.0000000 magnetization 
 augmentation part     1688.0000000 magnetization 

 DIPCOR: dipole corrections for dipol
 direction  3 min pos   152,
 dipolmoment           0.000000      0.000000     -0.004346 electrons x Angstroem
 Tr[quadrupol]    -67697.841647

 energy correction for charged system         0.000000 eV
 dipol+quadrupol energy correction           -0.000000 eV
 added-field ion interaction         -0.061056 eV  (added to PSCEN)


 Free energy of the ion-electron system (eV)
  ---------------------------------------------------
  alpha Z        PSCENC =      4023.83341695
  Ewald energy   TEWEN  =    577051.50965863
  -Hartree energ DENC   =   -774983.51789147
  -exchange      EXHF   =         0.00000000
  -V(xc)+E(xc)   XCENC  =      6918.37472209
  PAW double counting   =    179694.28261536  -194950.76635334
  entropy T*S    EENTRO =        -0.02848365
  eigenvalues    EBANDS =       268.30089705
  atomic energy  EATOM  =    204222.15008807
  Solvation  Ediel_sol  =         0.00000000
  ---------------------------------------------------
  free energy    TOTEN  =      2244.13866969 eV

  energy without entropy =     2244.16715334  energy(sigma->0) =     2244.15291152


--------------------------------------------------------------------------------------------------------




--------------------------------------- Iteration      1(   3)  ---------------------------------------


     EDDAV:  cpu time   60.2800: real time   60.3035
       DOS:  cpu time    0.0012: real time    0.0012
    --------------------------------------------
      LOOP:  cpu time   60.2812: real time   60.3047

 eigenvalue-minimisations  : 12096
 total energy-change (2. order) :-0.2765340E+04  (-0.2519577E+04)
 number of electron    1688.0000000 magnetization 
 augmentation part     1688.0000000 magnetization 

 DIPCOR: dipole corrections for dipol
 direction  3 min pos   152,
 dipolmoment           0.000000      0.000000     -0.004346 electrons x Angstroem
 Tr[quadrupol]    -67697.841647

 energy correction for charged system         0.000000 eV
 dipol+quadrupol energy correction           -0.000000 eV
 added-field ion interaction         -0.061056 eV  (added to PSCEN)


 Free energy of the ion-electron system (eV)
  ---------------------------------------------------
  alpha Z        PSCENC =      4023.83341695
  Ewald energy   TEWEN  =    577051.50965863
  -Hartree energ DENC   =   -774983.51789147
  -exchange      EXHF   =         0.00000000
  -V(xc)+E(xc)   XCENC  =      6918.37472209
  PAW double counting   =    179694.28261536  -194950.76635334
  entropy T*S    EENTRO =        -0.03909944
  eigenvalues    EBANDS =     -2497.02888883
  atomic energy  EATOM  =    204222.15008807
  Solvation  Ediel_sol  =         0.00000000
  ---------------------------------------------------
  free energy    TOTEN  =      -521.20173198 eV

  energy without entropy =     -521.16263254  energy(sigma->0) =     -521.18218226


--------------------------------------------------------------------------------------------------------




--------------------------------------- Iteration      1(   4)  ---------------------------------------


     EDDAV:  cpu time   85.2988: real time   85.3302
       DOS:  cpu time    0.0012: real time    0.0012
    --------------------------------------------
      LOOP:  cpu time   85.3000: real time   85.3314

 eigenvalue-minimisations  : 17328
 total energy-change (2. order) :-0.3533536E+03  (-0.3396342E+03)
 number of electron    1688.0000000 magnetization 
 augmentation part     1688.0000000 magnetization 

 DIPCOR: dipole corrections for dipol
 direction  3 min pos   152,
 dipolmoment           0.000000      0.000000     -0.004346 electrons x Angstroem
 Tr[quadrupol]    -67697.841647

 energy correction for charged system         0.000000 eV
 dipol+quadrupol energy correction           -0.000000 eV
 added-field ion interaction         -0.061056 eV  (added to PSCEN)


 Free energy of the ion-electron system (eV)
  ---------------------------------------------------
  alpha Z        PSCENC =      4023.83341695
  Ewald energy   TEWEN  =    577051.50965863
  -Hartree energ DENC   =   -774983.51789147
  -exchange      EXHF   =         0.00000000
  -V(xc)+E(xc)   XCENC  =      6918.37472209
  PAW double counting   =    179694.28261536  -194950.76635334
  entropy T*S    EENTRO =        -0.05536986
  eigenvalues    EBANDS =     -2850.36624263
  atomic energy  EATOM  =    204222.15008807
  Solvation  Ediel_sol  =         0.00000000
  ---------------------------------------------------
  free energy    TOTEN  =      -874.55535619 eV

  energy without entropy =     -874.49998634  energy(sigma->0) =     -874.52767127


--------------------------------------------------------------------------------------------------------




--------------------------------------- Iteration      1(   5)  ---------------------------------------


     EDDAV:  cpu time   77.7064: real time   77.7365
       DOS:  cpu time    0.0012: real time    0.0012
    --------------------------------------------
      LOOP:  cpu time   77.7075: real time   77.7377

 eigenvalue-minimisations  : 16464
 total energy-change (2. order) :-0.2165393E+02  (-0.2066737E+02)
 number of electron    1688.0000000 magnetization 
 augmentation part     1688.0000000 magnetization 

 DIPCOR: dipole corrections for dipol
 direction  3 min pos   152,
 dipolmoment           0.000000      0.000000     -0.004346 electrons x Angstroem
 Tr[quadrupol]    -67697.841647

 energy correction for charged system         0.000000 eV
 dipol+quadrupol energy correction           -0.000000 eV
 added-field ion interaction         -0.061056 eV  (added to PSCEN)


 Free energy of the ion-electron system (eV)
  ---------------------------------------------------
  alpha Z        PSCENC =      4023.83341695
  Ewald energy   TEWEN  =    577051.50965863
  -Hartree energ DENC   =   -774983.51789147
  -exchange      EXHF   =         0.00000000
  -V(xc)+E(xc)   XCENC  =      6918.37472209
  PAW double counting   =    179694.28261536  -194950.76635334
  entropy T*S    EENTRO =        -0.02088565
  eigenvalues    EBANDS =     -2872.05465267
  atomic energy  EATOM  =    204222.15008807
  Solvation  Ediel_sol  =         0.00000000
  ---------------------------------------------------
  free energy    TOTEN  =      -896.20928203 eV

  energy without entropy =     -896.18839638  energy(sigma->0) =     -896.19883921


--------------------------------------------------------------------------------------------------------




--------------------------------------- Iteration      1(   6)  ---------------------------------------


     EDDAV:  cpu time   76.7100: real time   76.7396
       DOS:  cpu time    0.0012: real time    0.0012
    --------------------------------------------
      LOOP:  cpu time   76.7111: real time   76.7407

 eigenvalue-minimisations  : 16224
 total energy-change (2. order) :-0.5075888E+00  (-0.5053545E+00)
 number of electron    1688.0000000 magnetization 
 augmentation part     1688.0000000 magnetization 

 DIPCOR: dipole corrections for dipol
 direction  3 min pos   152,
 dipolmoment           0.000000      0.000000     -0.004346 electrons x Angstroem
 Tr[quadrupol]    -67697.841647

 energy correction for charged system         0.000000 eV
 dipol+quadrupol energy correction           -0.000000 eV
 added-field ion interaction         -0.061056 eV  (added to PSCEN)


 Free energy of the ion-electron system (eV)
  ---------------------------------------------------
  alpha Z        PSCENC =      4023.83341695
  Ewald energy   TEWEN  =    577051.50965863
  -Hartree energ DENC   =   -774983.51789147
  -exchange      EXHF   =         0.00000000
  -V(xc)+E(xc)   XCENC  =      6918.37472209
  PAW double counting   =    179694.28261536  -194950.76635334
  entropy T*S    EENTRO =        -0.02102896
  eigenvalues    EBANDS =     -2872.56209817
  atomic energy  EATOM  =    204222.15008807
  Solvation  Ediel_sol  =         0.00000000
  ---------------------------------------------------
  free energy    TOTEN  =      -896.71687084 eV

  energy without entropy =     -896.69584188  energy(sigma->0) =     -896.70635636


--------------------------------------------------------------------------------------------------------




--------------------------------------- Iteration      1(   7)  ---------------------------------------


     EDDAV:  cpu time   76.9817: real time   77.0105
       DOS:  cpu time    0.0012: real time    0.0012
    CHARGE:  cpu time    2.1393: real time    2.1441
    MIXING:  cpu time    0.0035: real time    0.0057
    --------------------------------------------
      LOOP:  cpu time   79.1256: real time   79.1615

 eigenvalue-minimisations  : 16320
 total energy-change (2. order) :-0.1574281E-01  (-0.1572311E-01)
 number of electron    1687.9999236 magnetization 
 augmentation part      935.9252878 magnetization 

 DIPCOR: dipole corrections for dipol
 direction  3 min pos   152,
 dipolmoment           0.000000      0.000000     -0.004346 electrons x Angstroem
 Tr[quadrupol]    -67697.841647

 energy correction for charged system         0.000000 eV
 dipol+quadrupol energy correction           -0.000000 eV
 added-field ion interaction         -0.061056 eV  (added to PSCEN)


 Broyden mixing:
  rms(total) = 0.98730E+01    rms(broyden)= 0.98720E+01
  rms(prec ) = 0.10671E+02
  weight for this iteration     100.00

 Free energy of the ion-electron system (eV)
  ---------------------------------------------------
  alpha Z        PSCENC =      4023.83341695
  Ewald energy   TEWEN  =    577051.50965863
  -Hartree energ DENC   =   -774983.51789147
  -exchange      EXHF   =         0.00000000
  -V(xc)+E(xc)   XCENC  =      6918.37472209
  PAW double counting   =    179694.28261536  -194950.76635334
  entropy T*S    EENTRO =        -0.02103387
  eigenvalues    EBANDS =     -2872.57783608
  atomic energy  EATOM  =    204222.15008807
  Solvation  Ediel_sol  =         0.00000000
  ---------------------------------------------------
  free energy    TOTEN  =      -896.73261365 eV

  energy without entropy =     -896.71157979  energy(sigma->0) =     -896.72209672


--------------------------------------------------------------------------------------------------------




--------------------------------------- Iteration      1(   8)  ---------------------------------------


    POTLOK:  cpu time    0.1095: real time    0.1103
    SETDIJ:  cpu time    0.0130: real time    0.0130
    EDDIAG:  cpu time   10.5779: real time   10.5889
  RMM-DIIS:  cpu time   25.5018: real time   25.5246
    ORTHCH:  cpu time    5.8280: real time    5.8308
       DOS:  cpu time    0.0012: real time    0.0012
    CHARGE:  cpu time    2.1331: real time    2.1338
    MIXING:  cpu time    0.0036: real time    0.0087
    --------------------------------------------
      LOOP:  cpu time   44.1681: real time   44.2112

 eigenvalue-minimisations  : 10615
 total energy-change (2. order) : 0.1142990E+02  (-0.1645372E+03)
 number of electron    1687.9999123 magnetization 
 augmentation part     1066.4334196 magnetization 

 DIPCOR: dipole corrections for dipol
 direction  3 min pos   157,
 dipolmoment           0.000000      0.000000      4.961793 electrons x Angstroem
 Tr[quadrupol]    -67680.979600

 energy correction for charged system         0.000000 eV
 dipol+quadrupol energy correction           -0.531664 eV
 added-field ion interaction        240.763092 eV  (added to PSCEN)


 Broyden mixing:
  rms(total) = 0.66331E+01    rms(broyden)= 0.66290E+01
  rms(prec ) = 0.86864E+01
  weight for this iteration     100.00

 eigenvalues of (default mixing * dielectric matrix)
  average eigenvalue GAMMA=   0.6097
  0.6097

 Free energy of the ion-electron system (eV)
  ---------------------------------------------------
  alpha Z        PSCENC =      4264.12590150
  Ewald energy   TEWEN  =    577051.50965863
  -Hartree energ DENC   =   -770130.46324660
  -exchange      EXHF   =         0.00000000
  -V(xc)+E(xc)   XCENC  =      6727.55404634
  PAW double counting   =    183843.06020210  -198263.19111719
  entropy T*S    EENTRO =        -0.03640243
  eigenvalues    EBANDS =     -8600.01184494
  atomic energy  EATOM  =    204222.15008807
  Solvation  Ediel_sol  =         0.00000000
  ---------------------------------------------------
  free energy    TOTEN  =      -885.30271452 eV

  energy without entropy =     -885.26631209  energy(sigma->0) =     -885.28451331


--------------------------------------------------------------------------------------------------------




--------------------------------------- Iteration      1(   9)  ---------------------------------------


    POTLOK:  cpu time    0.1087: real time    0.1093
    SETDIJ:  cpu time    0.0128: real time    0.0129
    EDDIAG:  cpu time   10.5106: real time   10.5185
  RMM-DIIS:  cpu time   25.6183: real time   25.6379
    ORTHCH:  cpu time    3.5119: real time    3.5135
       DOS:  cpu time    0.0012: real time    0.0012
    CHARGE:  cpu time    2.1459: real time    2.1466
    MIXING:  cpu time    0.0033: real time    0.0034
    --------------------------------------------
      LOOP:  cpu time   41.9128: real time   41.9431

 eigenvalue-minimisations  : 10795
 total energy-change (2. order) :-0.2586641E+02  (-0.3558336E+02)
 number of electron    1687.9999256 magnetization 
 augmentation part      983.1776638 magnetization 

 DIPCOR: dipole corrections for dipol
 direction  3 min pos   155,
 dipolmoment           0.000000      0.000000     -7.474963 electrons x Angstroem
 Tr[quadrupol]    -67702.217060

 energy correction for charged system         0.000000 eV
 dipol+quadrupol energy correction           -1.206641 eV
 added-field ion interaction       -259.633029 eV  (added to PSCEN)


 Broyden mixing:
  rms(total) = 0.90539E+01    rms(broyden)= 0.90513E+01
  rms(prec ) = 0.15106E+02
  weight for this iteration     100.00

 eigenvalues of (default mixing * dielectric matrix)
  average eigenvalue GAMMA=   0.3611
  0.6381  0.0842

 Free energy of the ion-electron system (eV)
  ---------------------------------------------------
  alpha Z        PSCENC =      3763.05480322
  Ewald energy   TEWEN  =    577051.50965863
  -Hartree energ DENC   =   -772776.26633887
  -exchange      EXHF   =         0.00000000
  -V(xc)+E(xc)   XCENC  =      6788.87246062
  PAW double counting   =    188396.07063543  -203504.17457522
  entropy T*S    EENTRO =        -0.08437858
  eigenvalues    EBANDS =     -4852.30147793
  atomic energy  EATOM  =    204222.15008807
  Solvation  Ediel_sol  =         0.00000000
  ---------------------------------------------------
  free energy    TOTEN  =      -911.16912463 eV

  energy without entropy =     -911.08474604  energy(sigma->0) =     -911.12693533


--------------------------------------------------------------------------------------------------------




--------------------------------------- Iteration      1(  10)  ---------------------------------------


    POTLOK:  cpu time    0.1077: real time    0.1077
    SETDIJ:  cpu time    0.0128: real time    0.0128
    EDDIAG:  cpu time   10.5217: real time   10.5259
  RMM-DIIS:  cpu time   25.3318: real time   25.3423
    ORTHCH:  cpu time    3.5090: real time    3.5101
       DOS:  cpu time    0.0012: real time    0.0012
    CHARGE:  cpu time    2.1409: real time    2.1419
    MIXING:  cpu time    0.0034: real time    0.0034
    --------------------------------------------
      LOOP:  cpu time   41.6284: real time   41.6453

 eigenvalue-minimisations  : 10670
 total energy-change (2. order) : 0.1480714E+03  (-0.4218360E+01)
 number of electron    1687.9999187 magnetization 
 augmentation part     1016.2494232 magnetization 

 DIPCOR: dipole corrections for dipol
 direction  3 min pos   159,
 dipolmoment           0.000000      0.000000     -1.376159 electrons x Angstroem
 Tr[quadrupol]    -67709.991927

 energy correction for charged system         0.000000 eV
 dipol+quadrupol energy correction           -0.040898 eV
 added-field ion interaction        -85.752734 eV  (added to PSCEN)


 Broyden mixing:
  rms(total) = 0.25212E+01    rms(broyden)= 0.25197E+01
  rms(prec ) = 0.28935E+01
[...]
    --------------------------------------------
      LOOP:  cpu time   30.7167: real time   30.7327

 eigenvalue-minimisations  :  5875
 total energy-change (2. order) :-0.1368840E-05  (-0.1541079E-06)
 number of electron    1687.9999187 magnetization 
 augmentation part     1013.5291479 magnetization 

 DIPCOR: dipole corrections for dipol
 direction  3 min pos   155,
 dipolmoment           0.000000      0.000000     -0.506357 electrons x Angstroem
 Tr[quadrupol]    -67729.629496

 energy correction for charged system         0.000000 eV
 dipol+quadrupol energy correction           -0.005537 eV
 added-field ion interaction        -17.587697 eV  (added to PSCEN)


 eigenvalues of (default mixing * dielectric matrix)
  average eigenvalue GAMMA=   0.1827
  0.1827

  free energy =  -0.745929166523E+03  energy without entropy=  -0.745880632509E+03


--------------------------------------------------------------------------------------------------------




--------------------------------------- Iteration      4(   3)  ---------------------------------------


    POTLOK:  cpu time    0.1097: real time    0.1104
    SETDIJ:  cpu time    0.0128: real time    0.0128
    EDDIAG:  cpu time   10.4968: real time   10.5012
  RMM-DIIS:  cpu time   14.2563: real time   14.2623
    ORTHCH:  cpu time    3.5713: real time    3.5726
       DOS:  cpu time    0.0012: real time    0.0012
    CHARGE:  cpu time    2.1403: real time    2.1414
    MIXING:  cpu time    0.0032: real time    0.0033
    --------------------------------------------
      LOOP:  cpu time   30.5916: real time   30.6052

 eigenvalue-minimisations  :  5825
 total energy-change (2. order) : 0.8886855E-06  (-0.6281544E-07)
 number of electron    1687.9999187 magnetization 
 augmentation part     1013.5292013 magnetization 

 DIPCOR: dipole corrections for dipol
 direction  3 min pos   155,
 dipolmoment           0.000000      0.000000     -0.505712 electrons x Angstroem
 Tr[quadrupol]    -67729.630440

 energy correction for charged system         0.000000 eV
 dipol+quadrupol energy correction           -0.005523 eV
 added-field ion interaction        -17.565271 eV  (added to PSCEN)


 eigenvalues of (default mixing * dielectric matrix)
  average eigenvalue GAMMA=   0.6034
  1.0278  0.1791

  free energy =  -0.745929165634E+03  energy without entropy=  -0.745880635897E+03


--------------------------------------------------------------------------------------------------------




--------------------------------------- Iteration      4(   4)  ---------------------------------------


    POTLOK:  cpu time    0.1096: real time    0.1102
    SETDIJ:  cpu time    0.0128: real time    0.0128
    EDDIAG:  cpu time   10.4874: real time   10.4917
  RMM-DIIS:  cpu time   10.5493: real time   10.5535
    ORTHCH:  cpu time    3.4928: real time    3.4944
       DOS:  cpu time    0.0012: real time    0.0012
    CHARGE:  cpu time    2.2427: real time    2.2440
    MIXING:  cpu time    0.0033: real time    0.0033
    --------------------------------------------
      LOOP:  cpu time   26.8990: real time   26.9110

 eigenvalue-minimisations  :  2330
 total energy-change (2. order) :-0.2599845E-06  (-0.8777873E-08)
 number of electron    1687.9999187 magnetization 
 augmentation part     1013.5291496 magnetization 

 DIPCOR: dipole corrections for dipol
 direction  3 min pos   155,
 dipolmoment           0.000000      0.000000     -0.505636 electrons x Angstroem
 Tr[quadrupol]    -67729.630437

 energy correction for charged system         0.000000 eV
 dipol+quadrupol energy correction           -0.005521 eV
 added-field ion interaction        -17.562645 eV  (added to PSCEN)


 eigenvalues of (default mixing * dielectric matrix)
  average eigenvalue GAMMA=   0.8874
  1.7501  0.1794  0.7327

  free energy =  -0.745929165894E+03  energy without entropy=  -0.745880634560E+03


--------------------------------------------------------------------------------------------------------




--------------------------------------- Iteration      4(   5)  ---------------------------------------


    POTLOK:  cpu time    0.1094: real time    0.1101
    SETDIJ:  cpu time    0.0129: real time    0.0129
    EDDIAG:  cpu time   10.5178: real time   10.5226
  RMM-DIIS:  cpu time   10.4152: real time   10.4201
    ORTHCH:  cpu time    3.4907: real time    3.4917
       DOS:  cpu time    0.0011: real time    0.0011
    --------------------------------------------
      LOOP:  cpu time   24.5472: real time   24.5585

 eigenvalue-minimisations  :  2208
 total energy-change (2. order) :-0.2863235E-06  (-0.3252718E-08)
 number of electron    1687.9999187 magnetization 
 augmentation part     1013.5291496 magnetization 

 DIPCOR: dipole corrections for dipol
 direction  3 min pos   155,
 dipolmoment           0.000000      0.000000     -0.505537 electrons x Angstroem
 Tr[quadrupol]    -67729.630334

 energy correction for charged system         0.000000 eV
 dipol+quadrupol energy correction           -0.005519 eV
 added-field ion interaction        -17.559203 eV  (added to PSCEN)


  free energy =  -0.745929166180E+03  energy without entropy=  -0.745880636022E+03


--------------------------------------------------------------------------------------------------------




------------------------ aborting loop because EDIFF is reached ----------------------------------------


    CHARGE:  cpu time    2.1412: real time    2.1422
    FORLOC:  cpu time    0.0940: real time    0.0941
    FORNL :  cpu time    8.7187: real time    8.7218
    STRESS:  cpu time   25.9644: real time   25.9746
    FORCOR:  cpu time    0.1674: real time    0.1677
    FORHAR:  cpu time    0.1149: real time    0.1149
    MIXING:  cpu time    0.0038: real time    0.0038
    OFIELD:  cpu time    0.0001: real time    0.0001

  Number of pair interactions contributing to vdW energy: 1045205
  Edisp (eV):  -13.56430
    FORVDW:  cpu time    0.1483: real time    0.1483

  FORCE on cell =-STRESS in cart. coord.  units (eV):
  Direction    XX          YY          ZZ          XY          YZ          ZX
  --------------------------------------------------------------------------------------
  Alpha Z  4023.89447  4023.89447  4023.89447
  Ewald  682969.46288683209.21502************ -1463.77820  -236.49334    75.70998
  Hartree737254.29381737564.79209************ -1379.12020  -131.73676    -1.48873
  E(xc)   -9648.25204 -9648.85430 -9674.92564     0.02980    -0.49228     0.49588
  Local  ************************************  2851.88940   361.30036   -55.67305
  n-local -3222.07466 -3220.81924 -3315.53824    -0.64263     0.09423    -0.14336
  augment 13617.91094 13619.16973 13686.86340    -0.62919    -0.04386    -0.39600
  Kinetic 14475.63968 14496.51161 14797.16534    -8.03302     7.57071   -18.74216
  Fock        0.00000     0.00000     0.00000     0.00000     0.00000     0.00000
  vdW       -17.29649   -17.28291   -14.97516     0.10171    -0.04840     0.03363
  -------------------------------------------------------------------------------------
  Total      11.28677    11.04063    -5.56813    -0.18232     0.15065    -0.20382
  in kB       4.29573     4.20205    -2.11922    -0.06939     0.05734    -0.07757
  external pressure =        2.13 kB  Pullay stress =        0.00 kB



--------------------------------------------------------------------------------------------------------



  FREE ENERGIE OF THE ION-ELECTRON SYSTEM (eV)
  ---------------------------------------------------
  free  energy   TOTEN  =      -759.49346166 eV

  energy  without entropy=     -759.44493151  energy(sigma->0) =     -759.46919658
 
 d Force = 0.2490319E-06[-0.111E-06, 0.609E-06]  d Energy = 0.1787954E-05-0.154E-05
 d Force = 0.4944824E-02[ 0.494E-02, 0.495E-02]  d Ewald  = 0.4944827E-02-0.314E-08


--------------------------------------------------------------------------------------------------------


    POTLOK:  cpu time    0.1311: real time    0.1311


--------------------------------------------------------------------------------------------------------




--------------------------------------------------------------------------------------------------------


    WAVPRE:  cpu time    0.0886: real time    0.0901
    FEWALD:  cpu time    0.0054: real time    0.0054
    ORTHCH:  cpu time    6.3260: real time    6.3284
     LOOP+:  cpu time  206.1987: real time  206.2901


--------------------------------------- Iteration      5(   1)  ---------------------------------------


    POTLOK:  cpu time    0.1109: real time    0.1115
    SETDIJ:  cpu time    0.0129: real time    0.0128
     EDDAV:  cpu time   61.9826: real time   62.0086
       DOS:  cpu time    0.0012: real time    0.0011
    CHARGE:  cpu time    2.1402: real time    2.1409
    MIXING:  cpu time    0.0028: real time    0.0027
    --------------------------------------------
      LOOP:  cpu time   64.2505: real time   64.2778

 eigenvalue-minimisations  : 11040
 total energy-change (2. order) :-0.5099748E-05  (-0.2157002E-03)
 number of electron    1687.9999187 magnetization 
 augmentation part     1013.5291805 magnetization 

 DIPCOR: dipole corrections for dipol
 direction  3 min pos   155,
 dipolmoment           0.000000      0.000000     -0.505448 electrons x Angstroem
 Tr[quadrupol]    -67729.706515

 energy correction for charged system         0.000000 eV
 dipol+quadrupol energy correction           -0.005517 eV
 added-field ion interaction        -17.556167 eV  (added to PSCEN)


  free energy =  -0.745929170994E+03  energy without entropy=  -0.745880639123E+03


--------------------------------------------------------------------------------------------------------




--------------------------------------- Iteration      5(   2)  ---------------------------------------


    POTLOK:  cpu time    0.1094: real time    0.1099
    SETDIJ:  cpu time    0.0163: real time    0.0163
    EDDIAG:  cpu time   10.5204: real time   10.5243
  RMM-DIIS:  cpu time   17.5842: real time   17.5924
    ORTHCH:  cpu time    3.4988: real time    3.5000
       DOS:  cpu time    0.0012: real time    0.0012
    CHARGE:  cpu time    2.1373: real time    2.1382
    MIXING:  cpu time    0.0030: real time    0.0030
    --------------------------------------------
      LOOP:  cpu time   33.8707: real time   33.8852

 eigenvalue-minimisations  :  7209
 total energy-change (2. order) :-0.6630464E-05  (-0.8253518E-05)
 number of electron    1687.9999187 magnetization 
 augmentation part     1013.5291443 magnetization 

 DIPCOR: dipole corrections for dipol
 direction  3 min pos   155,
 dipolmoment           0.000000      0.000000     -0.505528 electrons x Angstroem
 Tr[quadrupol]    -67729.706590

 energy correction for charged system         0.000000 eV
 dipol+quadrupol energy correction           -0.005519 eV
 added-field ion interaction        -17.558947 eV  (added to PSCEN)


 eigenvalues of (default mixing * dielectric matrix)
  average eigenvalue GAMMA=   0.9698
  0.9698

  free energy =  -0.745929177624E+03  energy without entropy=  -0.745880646510E+03


--------------------------------------------------------------------------------------------------------




--------------------------------------- Iteration      5(   3)  ---------------------------------------


    POTLOK:  cpu time    0.1094: real time    0.1102
    SETDIJ:  cpu time    0.0128: real time    0.0128
    EDDIAG:  cpu time   10.4920: real time   10.4963
  RMM-DIIS:  cpu time   14.6984: real time   14.7050
    ORTHCH:  cpu time    3.4748: real time    3.4759
       DOS:  cpu time    0.0012: real time    0.0012
    CHARGE:  cpu time    2.1448: real time    2.1458
    MIXING:  cpu time    0.0032: real time    0.0032
    --------------------------------------------
      LOOP:  cpu time   30.9367: real time   30.9503

 eigenvalue-minimisations  :  5994
 total energy-change (2. order) :-0.1015142E-06  (-0.5788936E-06)
 number of electron    1687.9999187 magnetization 
 augmentation part     1013.5293427 magnetization 

 DIPCOR: dipole corrections for dipol
 direction  3 min pos   155,
 dipolmoment           0.000000      0.000000     -0.504959 electrons x Angstroem
 Tr[quadrupol]    -67729.707555

 energy correction for charged system         0.000000 eV
 dipol+quadrupol energy correction           -0.005506 eV
 added-field ion interaction        -17.539205 eV  (added to PSCEN)


 eigenvalues of (default mixing * dielectric matrix)
  average eigenvalue GAMMA=   0.9274
  1.2408  0.6141

  free energy =  -0.745929177726E+03  energy without entropy=  -0.745880652198E+03


--------------------------------------------------------------------------------------------------------




--------------------------------------- Iteration      5(   4)  ---------------------------------------


    POTLOK:  cpu time    0.1091: real time    0.1105
    SETDIJ:  cpu time    0.0129: real time    0.0129
    EDDIAG:  cpu time   10.5127: real time   10.5164
  RMM-DIIS:  cpu time   14.5633: real time   14.5692
    ORTHCH:  cpu time    3.4935: real time    3.4948
       DOS:  cpu time    0.0012: real time    0.0012
    CHARGE:  cpu time    2.1347: real time    2.1355
    MIXING:  cpu time    0.0033: real time    0.0033
    --------------------------------------------
      LOOP:  cpu time   30.8308: real time   30.8438

 eigenvalue-minimisations  :  5935
 total energy-change (2. order) :-0.7309427E-06  (-0.2416111E-06)
 number of electron    1687.9999187 magnetization 
 augmentation part     1013.5290745 magnetization 

 DIPCOR: dipole corrections for dipol
 direction  3 min pos   155,
 dipolmoment           0.000000      0.000000     -0.506135 electrons x Angstroem
 Tr[quadrupol]    -67729.705942

 energy correction for charged system         0.000000 eV
 dipol+quadrupol energy correction           -0.005532 eV
 added-field ion interaction        -17.580032 eV  (added to PSCEN)


 eigenvalues of (default mixing * dielectric matrix)
  average eigenvalue GAMMA=   1.0080
  1.8922  0.9280  0.2037

  free energy =  -0.745929178457E+03  energy without entropy=  -0.745880642693E+03


--------------------------------------------------------------------------------------------------------




--------------------------------------- Iteration      5(   5)  ---------------------------------------


    POTLOK:  cpu time    0.1096: real time    0.1100
    SETDIJ:  cpu time    0.0129: real time    0.0129
    EDDIAG:  cpu time   10.4970: real time   10.5014
  RMM-DIIS:  cpu time   14.4461: real time   14.4520
    ORTHCH:  cpu time    3.4936: real time    3.4951
       DOS:  cpu time    0.0011: real time    0.0011
    --------------------------------------------
      LOOP:  cpu time   28.5602: real time   28.5724

 eigenvalue-minimisations  :  5918
 total energy-change (2. order) : 0.1587032E-05  (-0.1551107E-06)
 number of electron    1687.9999187 magnetization 
 augmentation part     1013.5290745 magnetization 

 DIPCOR: dipole corrections for dipol
 direction  3 min pos   155,
 dipolmoment           0.000000      0.000000     -0.505215 electrons x Angstroem
 Tr[quadrupol]    -67729.707529

 energy correction for charged system         0.000000 eV
 dipol+quadrupol energy correction           -0.005512 eV
 added-field ion interaction        -17.548095 eV  (added to PSCEN)


  free energy =  -0.745929176870E+03  energy without entropy=  -0.745880646348E+03


--------------------------------------------------------------------------------------------------------




------------------------ aborting loop because EDIFF is reached ----------------------------------------


    CHARGE:  cpu time    2.1407: real time    2.1415
    FORLOC:  cpu time    0.0940: real time    0.0940
    FORNL :  cpu time    8.7092: real time    8.7132
    STRESS:  cpu time   25.9678: real time   25.9810
    FORCOR:  cpu time    0.1674: real time    0.1674
    FORHAR:  cpu time    0.1121: real time    0.1121
    MIXING:  cpu time    0.0038: real time    0.0038
    OFIELD:  cpu time    0.0001: real time    0.0001

  Number of pair interactions contributing to vdW energy: 1045205
  Edisp (eV):  -13.56432
    FORVDW:  cpu time    0.1483: real time    0.1484

  FORCE on cell =-STRESS in cart. coord.  units (eV):
  Direction    XX          YY          ZZ          XY          YZ          ZX
  --------------------------------------------------------------------------------------
  Alpha Z  4023.89447  4023.89447  4023.89447
  Ewald  682970.33021683210.03277************ -1463.74831  -236.51656    75.81104
  Hartree737254.94291737565.54758************ -1379.17080  -131.77004    -1.45880
  E(xc)   -9648.25214 -9648.85504 -9674.92611     0.03009    -0.49224     0.49602
  Local  ************************************  2851.92920   361.35905   -55.79398
  n-local -3222.08631 -3220.82320 -3315.54126    -0.64405     0.09252    -0.14433
  augment 13617.91036 13619.16900 13686.86257    -0.62963    -0.04392    -0.39604
  Kinetic 14475.64329 14496.51455 14797.16155    -8.04124     7.56950   -18.74549
  Fock        0.00000     0.00000     0.00000     0.00000     0.00000     0.00000
  vdW       -17.29627   -17.28274   -14.97507     0.10166    -0.04840     0.03364
  -------------------------------------------------------------------------------------
  Total      11.30224    11.01525    -5.58078    -0.17310     0.14989    -0.19794
  in kB       4.30162     4.19239    -2.12404    -0.06588     0.05705    -0.07534
  external pressure =        2.12 kB  Pullay stress =        0.00 kB



--------------------------------------------------------------------------------------------------------



  FREE ENERGIE OF THE ION-ELECTRON SYSTEM (eV)
  ---------------------------------------------------
  free  energy   TOTEN  =      -759.49349886 eV

  energy  without entropy=     -759.44496834  energy(sigma->0) =     -759.46923360
 
 d Force = 0.3610432E-04[ 0.101E-04, 0.621E-04]  d Energy = 0.3719316E-04-0.109E-05
 d Force =-0.8527184E+00[-0.853E+00,-0.853E+00]  d Ewald  =-0.8527180E+00-0.421E-06


--------------------------------------------------------------------------------------------------------


    POTLOK:  cpu time    0.1291: real time    0.1291


--------------------------------------------------------------------------------------------------------


 Conjugate gradient step on ions:
 trial-energy change:   -0.000037  1 .order   -0.000036   -0.000062   -0.000010
  (g-gl).g = 0.614E-04      g.g   = 0.644E-04  gl.gl    = 0.352E-03
 g(Force)  = 0.644E-04   g(Stress)= 0.000E+00 ortho     = 0.301E-05
 gamma     =   0.17466
 trial     =   0.95584
 opt step  =   1.14216  (harmonic =   1.14216) maximal distance =0.00040146
 next E    =  -759.493499   (d E  =  -0.00004)


--------------------------------------------------------------------------------------------------------


  
 reached required accuracy - stopping structural energy minimisation
     LOOP+:  cpu time  225.9905: real time  226.0916
    4ORBIT:  cpu time    0.0000: real time    0.0000

 total amount of memory used by VASP MPI-rank0   301272. kBytes
=======================================================================

   base      :      30000. kBytes
   nonlr-proj:      54800. kBytes
   fftplans  :       7568. kBytes
   grid      :      40325. kBytes
   one-center:       2830. kBytes
   wavefun   :     165749. kBytes
 
  
  
 General timing and accounting informations for this job:
 ========================================================
  
                  Total CPU time used (sec):     2661.126
                            User time (sec):     2656.073
                          System time (sec):        5.054
                         Elapsed time (sec):     2665.031
  
                   Maximum memory used (kb):      640500.
                   Average memory used (kb):           0.
  
                          Minor page faults:       193715
                          Major page faults:            0
                 Voluntary context switches:         3626
