 vasp.5.4.4.18Apr17-6-g9f103f2a35 (build Jun 30 2017 19:19:18) complex          
  
 executed on         MareNostrum4 date 2022.04.05  13:06:56
 running on   48 total cores
 distrk:  each k-point on   48 cores,    1 groups
 distr:  one band on NCORES_PER_BAND=   1 cores,   48 groups


--------------------------------------------------------------------------------------------------------


 INCAR:
 POTCAR:    PAW_PBE Cu 22Jun2005                  
 POTCAR:    PAW_PBE O 08Apr2002                   
 POTCAR:    PAW_PBE C 08Apr2002                   
 POTCAR:    PAW_PBE N 08Apr2002                   
 POTCAR:    PAW_PBE H 15Jun2001                   

 ----------------------------------------------------------------------------- 
|                                                                             |
|           W    W    AA    RRRRR   N    N  II  N    N   GGGG   !!!           |
|           W    W   A  A   R    R  NN   N  II  NN   N  G    G  !!!           |
|           W    W  A    A  R    R  N N  N  II  N N  N  G       !!!           |
|           W WW W  AAAAAA  RRRRR   N  N N  II  N  N N  G  GGG   !            |
|           WW  WW  A    A  R   R   N   NN  II  N   NN  G    G                |
|           W    W  A    A  R    R  N    N  II  N    N   GGGG   !!!           |
|                                                                             |
|      For optimal performance we recommend to set                            |
|        NCORE= 4 - approx SQRT( number of cores)                             |
|      NCORE specifies how many cores store one orbital (NPAR=cpu/NCORE).     |
|      This setting can  greatly improve the performance of VASP for DFT.     |
|      The default,   NCORE=1            might be grossly inefficient         |
|      on modern multi-core architectures or massively parallel machines.     |
|      Do your own testing !!!!                                               |
|      Unfortunately you need to use the default for GW and RPA calculations. |
|      (for HF NCORE is supported but not extensively tested yet)             |
|                                                                             |
 ----------------------------------------------------------------------------- 

 POTCAR:    PAW_PBE Cu 22Jun2005                  
  local pseudopotential read in
  partial core-charges read in
  partial kinetic energy density read in
  atomic valenz-charges read in
  non local Contribution for L=           2  read in
    real space projection operators read in
  non local Contribution for L=           2  read in
    real space projection operators read in
  non local Contribution for L=           0  read in
    real space projection operators read in
  non local Contribution for L=           0  read in
    real space projection operators read in
  non local Contribution for L=           1  read in
    real space projection operators read in
  non local Contribution for L=           1  read in
    real space projection operators read in
    PAW grid and wavefunctions read in
 
   number of l-projection  operators is LMAX  =           6
   number of lm-projection operators is LMMAX =          18
 
 POTCAR:    PAW_PBE O 08Apr2002                   
  local pseudopotential read in
  partial core-charges read in
  partial kinetic energy density read in
  kinetic energy density of atom read in
  atomic valenz-charges read in
  non local Contribution for L=           0  read in
    real space projection operators read in
  non local Contribution for L=           0  read in
    real space projection operators read in
  non local Contribution for L=           1  read in
    real space projection operators read in
  non local Contribution for L=           1  read in
    real space projection operators read in
    PAW grid and wavefunctions read in
 
   number of l-projection  operators is LMAX  =           4
   number of lm-projection operators is LMMAX =           8
 
 POTCAR:    PAW_PBE C 08Apr2002                   
  local pseudopotential read in
  partial core-charges read in
  partial kinetic energy density read in
  atomic valenz-charges read in
  non local Contribution for L=           0  read in
    real space projection operators read in
  non local Contribution for L=           0  read in
    real space projection operators read in
  non local Contribution for L=           1  read in
    real space projection operators read in
  non local Contribution for L=           1  read in
    real space projection operators read in
    PAW grid and wavefunctions read in
 
   number of l-projection  operators is LMAX  =           4
   number of lm-projection operators is LMMAX =           8
 
 POTCAR:    PAW_PBE N 08Apr2002                   
  local pseudopotential read in
  partial core-charges read in
  partial kinetic energy density read in
  atomic valenz-charges read in
  non local Contribution for L=           0  read in
    real space projection operators read in
  non local Contribution for L=           0  read in
    real space projection operators read in
  non local Contribution for L=           1  read in
    real space projection operators read in
  non local Contribution for L=           1  read in
    real space projection operators read in
    PAW grid and wavefunctions read in
 
   number of l-projection  operators is LMAX  =           4
   number of lm-projection operators is LMMAX =           8
 
 POTCAR:    PAW_PBE H 15Jun2001                   
  local pseudopotential read in
  atomic valenz-charges read in
  non local Contribution for L=           0  read in
    real space projection operators read in
  non local Contribution for L=           0  read in
    real space projection operators read in
  non local Contribution for L=           1  read in
    real space projection operators read in
    PAW grid and wavefunctions read in
 
   number of l-projection  operators is LMAX  =           3
   number of lm-projection operators is LMMAX =           5
 
 Optimization of the real space projectors (new method)

 maximal supplied QI-value         = 16.25
 optimisation between [QCUT,QGAM] = [ 10.73, 21.61] = [ 32.22,130.83] Ry 
 Optimized for a Real-space Cutoff    1.42 Angstroem

   l    n(q)    QCUT    max X(q) W(low)/X(q) W(high)/X(q)  e(spline) 
   2      8    10.726     4.610    0.15E-03    0.25E-03    0.14E-06
   2      8    10.726     8.522    0.25E-03    0.43E-03    0.27E-06
   0      9    10.726    51.609    0.94E-04    0.10E-03    0.12E-06
   0      9    10.726    27.747    0.85E-04    0.96E-04    0.11E-06
   1      9    10.726    20.408    0.25E-03    0.14E-03    0.12E-06
   1      9    10.726    13.425    0.22E-03    0.13E-03    0.11E-06
 Optimization of the real space projectors (new method)

 maximal supplied QI-value         = 24.76
 optimisation between [QCUT,QGAM] = [ 10.64, 21.54] = [ 31.73,129.89] Ry 
 Optimized for a Real-space Cutoff    1.23 Angstroem

   l    n(q)    QCUT    max X(q) W(low)/X(q) W(high)/X(q)  e(spline) 
   0      8    10.645    20.381    0.38E-03    0.60E-03    0.15E-06
   0      8    10.645    15.268    0.40E-03    0.65E-03    0.17E-06
   1      7    10.645     5.964    0.30E-03    0.63E-03    0.18E-06
   1      7    10.645     5.382    0.24E-03    0.53E-03    0.16E-06
 Optimization of the real space projectors (new method)

 maximal supplied QI-value         = 25.13
 optimisation between [QCUT,QGAM] = [ 10.81, 21.61] = [ 32.71,130.83] Ry 
 Optimized for a Real-space Cutoff    1.23 Angstroem

   l    n(q)    QCUT    max X(q) W(low)/X(q) W(high)/X(q)  e(spline) 
   0      8    10.807   115.676    0.36E-03    0.72E-03    0.24E-06
   0      8    10.807    87.132    0.35E-03    0.71E-03    0.24E-06
   1      7    10.807     4.429    0.19E-03    0.39E-03    0.11E-06
   1      7    10.807     2.733    0.14E-03    0.28E-03    0.13E-06
 Optimization of the real space projectors (new method)

 maximal supplied QI-value         = 25.13
 optimisation between [QCUT,QGAM] = [ 10.81, 21.61] = [ 32.71,130.83] Ry 
 Optimized for a Real-space Cutoff    1.23 Angstroem

   l    n(q)    QCUT    max X(q) W(low)/X(q) W(high)/X(q)  e(spline) 
   0      8    10.807    79.467    0.34E-03    0.68E-03    0.21E-06
   0      8    10.807    66.151    0.34E-03    0.67E-03    0.21E-06
   1      7    10.807    14.030    0.45E-03    0.13E-02    0.11E-05
   1      7    10.807     9.831    0.48E-03    0.13E-02    0.11E-05
 Optimization of the real space projectors (new method)

 maximal supplied QI-value         = 34.20
 optimisation between [QCUT,QGAM] = [ 10.60, 21.55] = [ 31.48,130.03] Ry 
 Optimized for a Real-space Cutoff    1.23 Angstroem

   l    n(q)    QCUT    max X(q) W(low)/X(q) W(high)/X(q)  e(spline) 
   0      8    10.603    19.460    0.37E-03    0.59E-03    0.23E-06
   0      8    10.603    12.209    0.35E-03    0.56E-03    0.22E-06
   1      7    10.603     4.655    0.70E-04    0.28E-03    0.29E-06
  PAW_PBE Cu 22Jun2005                  :
 energy of atom  1       EATOM=-1390.9808
 kinetic energy error for atom=    0.0097 (will be added to EATOM!!)
  PAW_PBE O 08Apr2002                   :
 energy of atom  2       EATOM= -432.3788
 kinetic energy error for atom=    0.0389 (will be added to EATOM!!)
  PAW_PBE C 08Apr2002                   :
 energy of atom  3       EATOM= -147.1560
 kinetic energy error for atom=    0.0116 (will be added to EATOM!!)
  PAW_PBE N 08Apr2002                   :
 energy of atom  4       EATOM= -264.5486
 kinetic energy error for atom=    0.0253 (will be added to EATOM!!)
  PAW_PBE H 15Jun2001                   :
 energy of atom  5       EATOM=  -12.4884
 kinetic energy error for atom=    0.0045 (will be added to EATOM!!)
 
 
 POSCAR: Cu  O  C  N  H                          
  positions in cartesian coordinates
  No initial velocities read in
 exchange correlation table for  LEXCH =        8
   RHO(1)=    0.500       N(1)  =     2000
   RHO(2)=  100.500       N(2)  =     4000
 


--------------------------------------------------------------------------------------------------------


 ion  position               nearest neighbor table
   1  0.000  0.000  0.000-   2 2.52   3 2.52   4 2.52  28 2.52  10 2.52  35 2.52  70 2.52  40 2.52
                            47 2.52
   2  0.000  0.167  0.000-   3 2.52   1 2.52   8 2.52  28 2.52   5 2.52  27 2.52  39 2.52  61 2.52
                            40 2.52
   3  0.167  0.167  0.000-   2 2.52   1 2.52   8 2.52  14 2.52   4 2.52  17 2.52  38 2.52  40 2.52
                            37 2.52
   4  0.167  0.000  0.000-  10 2.52  14 2.52   1 2.52  13 2.52   3 2.52  11 2.52  47 2.52  37 2.52
                            46 2.52
   5  0.000  0.333  0.000-   6 2.52   8 2.52  32 2.52   7 2.52  27 2.52   2 2.52  62 2.52  44 2.52
                            39 2.52
   6  0.000  0.500  0.000-  12 2.52   5 2.52   7 2.52   9 2.52  32 2.52  31 2.52  43 2.52  65 2.52
                            44 2.52
   7  0.167  0.500  0.000-  18 2.52   8 2.52  21 2.52   6 2.52   5 2.52  12 2.52  42 2.52  44 2.52
                            41 2.52
   8  0.167  0.333  0.000-   7 2.52   2 2.52  18 2.52   3 2.52   5 2.52  17 2.52  39 2.52  41 2.52
                            38 2.52
   9  0.000  0.667  0.000-  10 2.52  12 2.52  36 2.52  31 2.52   6 2.52  11 2.52  66 2.52  48 2.52
                            43 2.52
  10  0.000  0.833  0.000-   4 2.52   9 2.52  11 2.52   1 2.52  36 2.52  35 2.52  47 2.52  69 2.52
                            48 2.52
  11  0.167  0.833  0.000-  22 2.52  13 2.52  12 2.52  10 2.52   4 2.52   9 2.52  46 2.52  48 2.52
                            45 2.52
  12  0.167  0.667  0.000-   6 2.52  11 2.52  22 2.52   9 2.52  21 2.52   7 2.52  43 2.52  45 2.52
                            42 2.52
  13  0.333  0.000  0.000-  15 2.52  22 2.52  11 2.52  16 2.52   4 2.52  14 2.52  46 2.52  52 2.52
                            59 2.52
  14  0.333  0.167  0.000-   4 2.52  17 2.52  15 2.52   3 2.52  13 2.52  20 2.52  37 2.52  51 2.52
                            52 2.52
  15  0.500  0.167  0.000-  13 2.52  20 2.52  14 2.52  26 2.52  16 2.52  29 2.52  50 2.52  52 2.52
                            49 2.52
  16  0.500  0.000  0.000-  26 2.52  25 2.52  13 2.52  23 2.52  15 2.52  22 2.52  59 2.52  49 2.52
                            58 2.52
  17  0.333  0.333  0.000-  14 2.52  20 2.52   8 2.52  19 2.52  18 2.52   3 2.52  38 2.52  56 2.52
                            51 2.52
  18  0.333  0.500  0.000-   7 2.52  21 2.52   8 2.52  17 2.52  24 2.52  19 2.52  41 2.52  55 2.52
                            56 2.52
  19  0.500  0.500  0.000-  30 2.52  33 2.52  20 2.52  17 2.52  24 2.52  18 2.52  54 2.52  56 2.52
                            53 2.52
  20  0.500  0.333  0.000-  19 2.52  30 2.52  15 2.52  29 2.52  17 2.52  14 2.52  51 2.52  53 2.52
                            50 2.52
  21  0.333  0.667  0.000-  18 2.52   7 2.52  24 2.52  12 2.52  23 2.52  22 2.52  42 2.52  60 2.52
                            55 2.52
  22  0.333  0.833  0.000-  11 2.52  13 2.52  12 2.52  16 2.52  21 2.52  23 2.52  45 2.52  59 2.52
                            60 2.52
  23  0.500  0.833  0.000-  34 2.52  25 2.52  24 2.52  16 2.52  21 2.52  22 2.52  58 2.52  60 2.52
                            57 2.52
  24  0.500  0.667  0.000-  23 2.52  34 2.52  33 2.52  21 2.52  18 2.52  19 2.52  55 2.52  57 2.52
                            54 2.52
  25  0.667  0.000  0.000-  23 2.52  27 2.52  34 2.52  16 2.52  28 2.52  26 2.52  58 2.52  64 2.52
                            71 2.52
  26  0.667  0.167  0.000-  16 2.52  29 2.52  27 2.52  15 2.52  25 2.52  32 2.52  49 2.52  63 2.52
                            64 2.52
  27  0.833  0.167  0.000-  25 2.52  32 2.52  26 2.52  28 2.52   5 2.52   2 2.52  62 2.52  64 2.52
                            61 2.52
  28  0.833  0.000  0.000-  35 2.52   1 2.52  25 2.52  27 2.52  34 2.52   2 2.52  71 2.52  61 2.52
                            70 2.52
  29  0.667  0.333  0.000-  31 2.52  26 2.52  20 2.52  32 2.52  30 2.52  15 2.52  50 2.52  68 2.52
                            63 2.52
  30  0.667  0.500  0.000-  19 2.52  20 2.52  33 2.52  31 2.52  29 2.52  36 2.52  53 2.52  67 2.52
                            68 2.52
  31  0.833  0.500  0.000-  36 2.52  29 2.52  30 2.52  32 2.52   9 2.52   6 2.52  66 2.52  68 2.52
                            65 2.52
  32  0.833  0.333  0.000-  27 2.52   5 2.52  29 2.52   6 2.52  31 2.52  26 2.52  63 2.52  65 2.52
                            62 2.52
  33  0.667  0.667  0.000-  19 2.52  30 2.52  35 2.52  24 2.52  36 2.52  34 2.52  54 2.52  72 2.52
                            67 2.52
  34  0.667  0.833  0.000-  23 2.52  25 2.52  24 2.52  35 2.52  28 2.52  33 2.52  57 2.52  71 2.52
                            72 2.52
  35  0.833  0.833  0.000-  28 2.52  33 2.52  34 2.52   1 2.52  36 2.52  10 2.52  70 2.52  72 2.52
                            69 2.52
  36  0.833  0.667  0.000-  31 2.52   9 2.52  33 2.52  30 2.52  10 2.52  35 2.52  67 2.52  69 2.52
                            66 2.52
  37  0.222  0.111  0.097-  75 2.50  76 2.50  74 2.50  51 2.52  52 2.52  38 2.52  46 2.52  40 2.52
                            47 2.52  14 2.52   4 2.52   3 2.52
  38  0.222  0.278  0.097-  76 2.50  73 2.50  79 2.50  37 2.52  51 2.52  40 2.52  56 2.52  39 2.52
                            41 2.52   3 2.52  17 2.52   8 2.52
  39  0.056  0.278  0.097-  73 2.50 100 2.50  78 2.50  40 2.52  61 2.52  62 2.52  38 2.52  41 2.52
                            44 2.52   2 2.52   8 2.52   5 2.52
  40  0.056  0.111  0.097-  74 2.50  99 2.50  73 2.50  39 2.52  61 2.52  38 2.52  70 2.52  37 2.52
                            47 2.52   3 2.52   1 2.52   2 2.52
  41  0.222  0.444  0.097-  79 2.50  80 2.50  78 2.50  55 2.52  56 2.52  42 2.52  38 2.52  44 2.52
                            39 2.52  18 2.52   8 2.52   7 2.52
  42  0.222  0.611  0.097-  80 2.50  77 2.50  83 2.50  41 2.52  55 2.52  44 2.52  60 2.52  43 2.52
                            45 2.52   7 2.52  21 2.52  12 2.52
  43  0.056  0.611  0.097-  77 2.50 104 2.50  82 2.50  44 2.52  65 2.52  66 2.52  42 2.52  48 2.52
                            45 2.52   6 2.52  12 2.52   9 2.52
  44  0.056  0.444  0.097-  78 2.50 103 2.50  77 2.50  43 2.52  65 2.52  42 2.52  62 2.52  41 2.52
                            39 2.52   7 2.52   5 2.52   6 2.52
  45  0.222  0.778  0.097-  83 2.50  84 2.50  82 2.50  59 2.52  60 2.52  46 2.52  42 2.52  48 2.52
                            43 2.52  22 2.52  12 2.52  11 2.52
  46  0.222  0.944  0.097-  84 2.50  81 2.50  75 2.50  45 2.52  59 2.52  48 2.52  52 2.52  47 2.52
                            37 2.52  11 2.52  13 2.52   4 2.52
  47  0.056  0.944  0.097-  81 2.50 108 2.50  74 2.50  69 2.52  48 2.52  70 2.52  46 2.52  40 2.52
                            37 2.52  10 2.52   4 2.52   1 2.52
  48  0.056  0.778  0.097-  82 2.50 107 2.50  81 2.50  47 2.52  69 2.52  46 2.52  66 2.52  45 2.52
                            43 2.52  11 2.52   9 2.52  10 2.52
  49  0.556  0.111  0.097-  87 2.50  88 2.50  86 2.50  63 2.52  64 2.52  50 2.52  58 2.52  52 2.52
                            59 2.52  26 2.52  16 2.52  15 2.52
  50  0.556  0.278  0.097-  88 2.50  85 2.50  91 2.50  49 2.52  63 2.52  52 2.52  68 2.52  51 2.52
                            53 2.52  15 2.52  29 2.52  20 2.52
  51  0.389  0.278  0.097-  85 2.50  76 2.50  90 2.50  37 2.52  52 2.52  38 2.52  50 2.52  56 2.52
                            53 2.52  14 2.52  20 2.52  17 2.52
  52  0.389  0.111  0.097-  86 2.50  75 2.50  85 2.50  51 2.52  37 2.52  50 2.52  46 2.52  49 2.52
                            59 2.52  15 2.52  13 2.52  14 2.52
  53  0.556  0.444  0.097-  91 2.50  92 2.50  90 2.50  67 2.52  68 2.52  54 2.52  50 2.52  56 2.52
                            51 2.52  30 2.52  20 2.52  19 2.52
  54  0.556  0.611  0.097-  92 2.50  89 2.50  95 2.50  53 2.52  67 2.52  56 2.52  72 2.52  55 2.52
                            57 2.52  19 2.52  33 2.52  24 2.52
  55  0.389  0.611  0.097-  89 2.50  80 2.50  94 2.50  41 2.52  56 2.52  42 2.52  54 2.52  60 2.52
                            57 2.52  18 2.52  24 2.52  21 2.52
  56  0.389  0.444  0.097-  90 2.50  79 2.50  89 2.50  55 2.52  41 2.52  54 2.52  38 2.52  53 2.52
                            51 2.52  19 2.52  17 2.52  18 2.52
  57  0.556  0.778  0.097-  95 2.50  96 2.50  94 2.50  71 2.52  72 2.52  58 2.52  54 2.52  60 2.52
                            55 2.52  34 2.52  24 2.52  23 2.52
  58  0.556  0.944  0.097-  96 2.50  93 2.50  87 2.50  57 2.52  71 2.52  60 2.52  64 2.52  59 2.52
                            49 2.52  23 2.52  25 2.52  16 2.52
  59  0.389  0.944  0.097-  93 2.50  84 2.50  86 2.50  45 2.52  60 2.52  46 2.52  58 2.52  52 2.52
                            49 2.52  22 2.52  16 2.52  13 2.52
  60  0.389  0.778  0.097-  94 2.50  83 2.50  93 2.50  59 2.52  45 2.52  58 2.52  42 2.52  57 2.52
                            55 2.52  23 2.52  21 2.52  22 2.52
  61  0.889  0.111  0.097-  99 2.50 100 2.50  98 2.50  39 2.52  40 2.52  62 2.52  70 2.52  64 2.52
                            71 2.52   2 2.52  28 2.52  27 2.52
  62  0.889  0.278  0.097- 100 2.50  97 2.50 103 2.50  61 2.52  39 2.52  64 2.52  44 2.52  63 2.52
                            65 2.52  27 2.52   5 2.52  32 2.52
  63  0.722  0.278  0.097-  97 2.50  88 2.50 102 2.50  64 2.52  49 2.52  50 2.52  62 2.52  65 2.52
                            68 2.52  26 2.52  32 2.52  29 2.52
  64  0.722  0.111  0.097-  98 2.50  87 2.50  97 2.50  63 2.52  49 2.52  62 2.52  58 2.52  61 2.52
                            71 2.52  27 2.52  25 2.52  26 2.52
  65  0.889  0.444  0.097- 103 2.50 104 2.50 102 2.50  43 2.52  44 2.52  66 2.52  62 2.52  68 2.52
                            63 2.52   6 2.52  32 2.52  31 2.52
  66  0.889  0.611  0.097- 104 2.50 101 2.50 107 2.50  65 2.52  43 2.52  68 2.52  48 2.52  67 2.52
                            69 2.52  31 2.52   9 2.52  36 2.52
  67  0.722  0.611  0.097- 101 2.50  92 2.50 106 2.50  68 2.52  53 2.52  54 2.52  66 2.52  72 2.52
                            69 2.52  30 2.52  36 2.52  33 2.52
  68  0.722  0.444  0.097- 102 2.50  91 2.50 101 2.50  67 2.52  53 2.52  66 2.52  50 2.52  65 2.52
                            63 2.52  31 2.52  29 2.52  30 2.52
  69  0.889  0.778  0.097- 107 2.50 108 2.50 106 2.50  47 2.52  48 2.52  70 2.52  66 2.52  72 2.52
                            67 2.52  10 2.52  36 2.52  35 2.52
  70  0.889  0.944  0.097- 108 2.50 105 2.50  99 2.50  69 2.52  47 2.52  72 2.52  40 2.52  71 2.52
                            61 2.52  35 2.52   1 2.52  28 2.52
  71  0.722  0.944  0.097- 105 2.50  96 2.50  98 2.50  72 2.52  57 2.52  58 2.52  70 2.52  64 2.52
                            61 2.52  34 2.52  28 2.52  25 2.52
  72  0.722  0.778  0.097- 106 2.50  95 2.50 105 2.50  71 2.52  57 2.52  70 2.52  54 2.52  69 2.52
                            67 2.52  35 2.52  33 2.52  34 2.52
  73  0.111  0.222  0.193-  39 2.50  38 2.50  40 2.50  79 2.52  76 2.52  78 2.52  74 2.52 100 2.52
                            99 2.52 116 2.56 110 2.56 111 2.56
  74  0.111  0.056  0.193-  40 2.50  47 2.50  37 2.50  81 2.52  75 2.52 108 2.52  76 2.52  99 2.52
                            73 2.52 109 2.56 111 2.56 112 2.56
  75  0.278  0.056  0.193-  37 2.50  52 2.50  46 2.50  84 2.52  81 2.52  74 2.52  86 2.52  85 2.52
                            76 2.52 112 2.56 122 2.56 121 2.56
  76  0.278  0.222  0.193-  38 2.50  51 2.50  37 2.50  79 2.52  73 2.52  90 2.52  74 2.52  85 2.52
                            75 2.52 125 2.56 111 2.56 122 2.56
  77  0.111  0.556  0.193-  43 2.50  42 2.50  44 2.50  83 2.52  80 2.52  82 2.52  78 2.52 104 2.52
                           103 2.52 120 2.56 114 2.56 115 2.56
  78  0.111  0.389  0.193-  44 2.50  39 2.50  41 2.50  73 2.52  79 2.52 100 2.52  80 2.52 103 2.52
                            77 2.52 113 2.56 115 2.56 116 2.56
  79  0.278  0.389  0.193-  41 2.50  56 2.50  38 2.50  76 2.52  73 2.52  78 2.52  90 2.52  89 2.52
                            80 2.52 116 2.56 126 2.56 125 2.56
  80  0.278  0.556  0.193-  42 2.50  55 2.50  41 2.50  83 2.52  77 2.52  94 2.52  78 2.52  89 2.52
                            79 2.52 115 2.56 129 2.56 126 2.56
  81  0.111  0.889  0.193-  47 2.50  46 2.50  48 2.50  75 2.52  84 2.52  74 2.52  82 2.52 108 2.52
                           107 2.52 112 2.56 118 2.56 119 2.56
  82  0.111  0.722  0.193-  48 2.50  43 2.50  45 2.50  77 2.52  83 2.52 104 2.52  84 2.52 107 2.52
                            81 2.52 117 2.56 119 2.56 120 2.56
  83  0.278  0.722  0.193-  45 2.50  60 2.50  42 2.50  77 2.52  80 2.52  82 2.52  94 2.52  93 2.52
                            84 2.52 120 2.56 130 2.56 129 2.56
  84  0.278  0.889  0.193-  46 2.50  59 2.50  45 2.50  75 2.52  81 2.52  86 2.52  82 2.52  93 2.52
                            83 2.52 119 2.56 121 2.56 130 2.56
  85  0.444  0.222  0.193-  51 2.50  50 2.50  52 2.50  91 2.52  88 2.52  90 2.52  86 2.52  76 2.52
                            75 2.52 128 2.56 122 2.56 123 2.56
  86  0.444  0.056  0.193-  52 2.50  59 2.50  49 2.50  93 2.52  87 2.52  84 2.52  88 2.52  75 2.52
                            85 2.52 121 2.56 123 2.56 124 2.56
  87  0.611  0.056  0.193-  49 2.50  64 2.50  58 2.50  96 2.52  93 2.52  86 2.52  98 2.52  97 2.52
                            88 2.52 124 2.56 134 2.56 133 2.56
  88  0.611  0.222  0.193-  50 2.50  63 2.50  49 2.50  91 2.52  85 2.52 102 2.52  86 2.52  97 2.52
                            87 2.52 137 2.56 123 2.56 134 2.56
  89  0.444  0.556  0.193-  55 2.50  54 2.50  56 2.50  95 2.52  92 2.52  94 2.52  90 2.52  80 2.52
                            79 2.52 132 2.56 126 2.56 127 2.56
  90  0.444  0.389  0.193-  56 2.50  51 2.50  53 2.50  85 2.52  91 2.52  76 2.52  92 2.52  79 2.52
                            89 2.52 125 2.56 127 2.56 128 2.56
  91  0.611  0.389  0.193-  53 2.50  68 2.50  50 2.50  88 2.52  85 2.52  90 2.52 102 2.52 101 2.52
                            92 2.52 128 2.56 138 2.56 137 2.56
  92  0.611  0.556  0.193-  54 2.50  67 2.50  53 2.50  95 2.52  89 2.52 106 2.52  90 2.52 101 2.52
                            91 2.52 127 2.56 141 2.56 138 2.56
  93  0.444  0.889  0.193-  59 2.50  58 2.50  60 2.50  87 2.52  96 2.52  86 2.52  94 2.52  84 2.52
                            83 2.52 124 2.56 130 2.56 131 2.56
  94  0.444  0.722  0.193-  60 2.50  55 2.50  57 2.50  89 2.52  95 2.52  80 2.52  96 2.52  83 2.52
                            93 2.52 129 2.56 131 2.56 132 2.56
  95  0.611  0.722  0.193-  57 2.50  72 2.50  54 2.50  89 2.52  92 2.52  94 2.52 106 2.52 105 2.52
                            96 2.52 132 2.56 142 2.56 141 2.56
  96  0.611  0.889  0.193-  58 2.50  71 2.50  57 2.50  87 2.52  93 2.52  98 2.52  94 2.52 105 2.52
                            95 2.52 131 2.56 133 2.56 142 2.56
  97  0.778  0.222  0.193-  63 2.50  62 2.50  64 2.50 103 2.52 100 2.52 102 2.52  98 2.52  88 2.52
                            87 2.52 140 2.56 134 2.56 135 2.56
  98  0.778  0.056  0.193-  64 2.50  71 2.50  61 2.50 105 2.52  99 2.52  96 2.52 100 2.52  87 2.52
                            97 2.52 133 2.56 135 2.56 136 2.56
  99  0.944  0.056  0.193-  61 2.50  40 2.50  70 2.50 105 2.52 108 2.52  98 2.52  74 2.52 100 2.52
                            73 2.52 136 2.56 110 2.56 109 2.56
 100  0.944  0.222  0.193-  62 2.50  39 2.50  61 2.50 103 2.52  97 2.52  78 2.52  98 2.52  73 2.52
                            99 2.52 113 2.56 135 2.56 110 2.56
 101  0.778  0.556  0.193-  67 2.50  66 2.50  68 2.50 107 2.52 104 2.52 106 2.52 102 2.52  92 2.52
                            91 2.52 144 2.56 138 2.56 139 2.56
 102  0.778  0.389  0.193-  68 2.50  63 2.50  65 2.50  97 2.52 103 2.52  88 2.52 104 2.52  91 2.52
                           101 2.52 137 2.56 139 2.56 140 2.56
 103  0.944  0.389  0.193-  65 2.50  44 2.50  62 2.50  97 2.52 100 2.52 102 2.52  78 2.52  77 2.52
                           104 2.52 140 2.56 114 2.56 113 2.56
 104  0.944  0.556  0.193-  66 2.50  43 2.50  65 2.50 107 2.52 101 2.52  82 2.52 102 2.52  77 2.52
                           103 2.52 117 2.56 139 2.56 114 2.56
 105  0.778  0.889  0.193-  71 2.50  70 2.50  72 2.50  99 2.52 108 2.52  98 2.52 106 2.52  96 2.52
                            95 2.52 136 2.56 142 2.56 143 2.56
 106  0.778  0.722  0.193-  72 2.50  67 2.50  69 2.50 101 2.52 107 2.52  92 2.52 108 2.52  95 2.52
                           105 2.52 141 2.56 143 2.56 144 2.56
 107  0.944  0.722  0.193-  69 2.50  48 2.50  66 2.50 101 2.52 104 2.52 106 2.52  82 2.52  81 2.52
                           108 2.52 144 2.56 118 2.56 117 2.56
 108  0.944  0.889  0.193-  70 2.50  47 2.50  69 2.50  99 2.52 105 2.52  74 2.52 106 2.52  81 2.52
                           107 2.52 109 2.56 143 2.56 118 2.56
 109  0.000  0.000  0.293- 110 2.52 111 2.52 112 2.52 136 2.52 118 2.52 143 2.52 108 2.56  74 2.56
                            99 2.56
 110  0.000  0.167  0.293- 111 2.52 109 2.52 116 2.52 136 2.52 113 2.52 135 2.52  73 2.56  99 2.56
                           100 2.56
 111  0.167  0.167  0.293- 110 2.52 109 2.52 116 2.52 122 2.52 112 2.52 125 2.52  76 2.56  74 2.56
                            73 2.56
 112  0.167  0.000  0.293- 118 2.52 122 2.52 109 2.52 121 2.52 111 2.52 119 2.52  81 2.56  75 2.56
                            74 2.56
 113  0.000  0.333  0.293- 114 2.52 116 2.52 140 2.52 115 2.52 135 2.52 110 2.52 100 2.56  78 2.56
                           103 2.56
 114  0.000  0.500  0.293- 120 2.52 113 2.52 115 2.52 117 2.52 140 2.52 139 2.52  77 2.56 103 2.56
                           104 2.56
 115  0.167  0.500  0.293- 126 2.52 116 2.52 129 2.52 114 2.52 113 2.52 120 2.52  80 2.56  78 2.56
                            77 2.56
 116  0.167  0.333  0.293- 115 2.52 110 2.52 126 2.52 111 2.52 113 2.52 125 2.52  73 2.56  79 2.56
                            78 2.56
 117  0.000  0.667  0.293- 118 2.52 120 2.52 144 2.52 139 2.52 114 2.52 119 2.52 104 2.56  82 2.56
                           107 2.56
 118  0.000  0.833  0.293- 112 2.52 117 2.52 119 2.52 109 2.52 144 2.52 143 2.52  81 2.56 107 2.56
                           108 2.56
 119  0.167  0.833  0.293- 130 2.52 121 2.52 120 2.52 118 2.52 112 2.52 117 2.52  84 2.56  82 2.56
                            81 2.56
 120  0.167  0.667  0.293- 114 2.52 119 2.52 130 2.52 117 2.52 129 2.52 115 2.52  77 2.56  83 2.56
                            82 2.56
 121  0.333  0.000  0.293- 123 2.52 130 2.52 119 2.52 124 2.52 112 2.52 122 2.52  84 2.56  86 2.56
                            75 2.56
 122  0.333  0.167  0.293- 112 2.52 125 2.52 123 2.52 111 2.52 121 2.52 128 2.52  75 2.56  85 2.56
                            76 2.56
 123  0.500  0.167  0.293- 121 2.52 128 2.52 122 2.52 134 2.52 124 2.52 137 2.52  88 2.56  86 2.56
                            85 2.56
 124  0.500  0.000  0.293- 134 2.52 133 2.52 121 2.52 131 2.52 123 2.52 130 2.52  93 2.56  87 2.56
                            86 2.56
 125  0.333  0.333  0.293- 122 2.52 128 2.52 116 2.52 127 2.52 126 2.52 111 2.52  76 2.56  90 2.56
                            79 2.56
 126  0.333  0.500  0.293- 115 2.52 129 2.52 116 2.52 125 2.52 132 2.52 127 2.52  79 2.56  89 2.56
                            80 2.56
 127  0.500  0.500  0.293- 138 2.52 141 2.52 128 2.52 125 2.52 132 2.52 126 2.52  92 2.56  90 2.56
                            89 2.56
 128  0.500  0.333  0.293- 127 2.52 138 2.52 123 2.52 137 2.52 125 2.52 122 2.52  85 2.56  91 2.56
                            90 2.56
 129  0.333  0.667  0.293- 126 2.52 115 2.52 132 2.52 120 2.52 131 2.52 130 2.52  80 2.56  94 2.56
                            83 2.56
 130  0.333  0.833  0.293- 119 2.52 121 2.52 120 2.52 124 2.52 129 2.52 131 2.52  83 2.56  93 2.56
                            84 2.56
 131  0.500  0.833  0.293- 142 2.52 133 2.52 132 2.52 124 2.52 129 2.52 130 2.52  96 2.56  94 2.56
                            93 2.56
 132  0.500  0.667  0.293- 131 2.52 142 2.52 141 2.52 129 2.52 126 2.52 127 2.52  89 2.56  95 2.56
                            94 2.56
 133  0.667  0.000  0.293- 131 2.52 135 2.52 142 2.52 124 2.52 136 2.52 134 2.52  96 2.56  98 2.56
                            87 2.56
 134  0.667  0.167  0.293- 124 2.52 137 2.52 135 2.52 123 2.52 133 2.52 140 2.52  87 2.56  97 2.56
                            88 2.56
 135  0.833  0.167  0.293- 133 2.52 140 2.52 134 2.52 136 2.52 113 2.52 110 2.52 100 2.56  98 2.56
                            97 2.56
 136  0.833  0.000  0.293- 143 2.52 109 2.52 133 2.52 135 2.52 142 2.52 110 2.52 105 2.56  99 2.56
                            98 2.56
 137  0.667  0.333  0.293- 168 1.42 155 2.32 139 2.52 134 2.52 128 2.52 140 2.52 138 2.52 123 2.52
                            88 2.56 102 2.56  91 2.56
 138  0.667  0.500  0.293- 145 2.32 127 2.52 141 2.52 128 2.52 139 2.52 137 2.52 144 2.52  91 2.56
                           101 2.56  92 2.56
 139  0.833  0.500  0.293- 144 2.52 137 2.52 138 2.52 140 2.52 117 2.52 114 2.52 104 2.56 102 2.56
                           101 2.56
 140  0.833  0.333  0.293- 135 2.52 113 2.52 137 2.52 114 2.52 139 2.52 134 2.52  97 2.56 103 2.56
                           102 2.56
 141  0.667  0.667  0.293- 127 2.52 138 2.52 143 2.52 132 2.52 144 2.52 142 2.52  92 2.56 106 2.56
                            95 2.56
 142  0.667  0.833  0.293- 131 2.52 133 2.52 132 2.52 143 2.52 136 2.52 141 2.52  95 2.56 105 2.56
                            96 2.56
 143  0.833  0.833  0.293- 136 2.52 141 2.52 142 2.52 109 2.52 144 2.52 118 2.52 108 2.56 106 2.56
                           105 2.56
 144  0.833  0.667  0.293- 139 2.52 117 2.52 141 2.52 138 2.52 118 2.52 143 2.52 101 2.56 107 2.56
                           106 2.56
 145  0.663  0.456  0.398- 154 1.22 138 2.32
 146  0.566  0.282  0.400- 154 1.38 155 1.44
 147  0.377  0.683  0.416- 165 1.10 164 1.10 166 1.10 148 1.50
 148  0.406  0.602  0.412- 149 1.40 153 1.42 147 1.50
 149  0.333  0.498  0.411- 158 1.09 150 1.39 148 1.40
 150  0.360  0.423  0.409- 159 1.09 149 1.39 151 1.41
 151  0.463  0.450  0.407- 152 1.40 150 1.41 157 1.41
 152  0.538  0.553  0.408- 160 1.09 151 1.40 153 1.40
 153  0.510  0.629  0.410- 156 1.39 152 1.40 148 1.42
 154  0.580  0.379  0.401- 145 1.22 157 1.37 146 1.38
 155  0.659  0.278  0.396- 167 1.10 169 1.10 168 1.10 146 1.44 137 2.32
 156  0.587  0.731  0.414- 161 1.01 162 1.01 153 1.39
 157  0.486  0.371  0.405- 163 1.01 154 1.37 151 1.41
 158  0.253  0.476  0.412- 149 1.09
 159  0.300  0.342  0.408- 150 1.09
 160  0.618  0.574  0.406- 152 1.09
 161  0.569  0.783  0.398- 156 1.01
 162  0.657  0.747  0.401- 156 1.01
 163  0.426  0.299  0.407- 157 1.01
 164  0.413  0.734  0.456- 147 1.10
 165  0.294  0.649  0.421- 147 1.10
 166  0.399  0.731  0.373- 147 1.10
 167  0.635  0.197  0.397- 155 1.10
 168  0.699  0.313  0.352- 155 1.10 137 1.42
 169  0.709  0.318  0.436- 155 1.10
 
  LATTYP: Found a hexagonal cell.
 ALAT       =    15.1479005815
 C/A-ratio  =     1.3984776241
  
  Lattice vectors:
  
 A1 = (  15.1479005814,   0.0000000000,   0.0000000000)
 A2 = (  -7.5739502907,  13.1184667176,   0.0000000000)
 A3 = (   0.0000000000,   0.0000000000,  21.1840000153)


Analysis of symmetry for initial positions (statically):
=====================================================================
 Subroutine PRICEL returns:
 Original cell was already a primitive cell.
 

 Routine SETGRP: Setting up the symmetry group for a 
 hexagonal supercell.


 Subroutine GETGRP returns: Found  1 space group operations
 (whereof  1 operations were pure point group operations)
 out of a pool of 24 trial point group operations.


The static configuration has the point symmetry C_1 .


Analysis of symmetry for dynamics (positions and initial velocities):
=====================================================================
 Subroutine PRICEL returns:
 Original cell was already a primitive cell.
 

 Routine SETGRP: Setting up the symmetry group for a 
 hexagonal supercell.


 Subroutine GETGRP returns: Found  1 space group operations
 (whereof  1 operations were pure point group operations)
 out of a pool of 24 trial point group operations.


The dynamic configuration has the point symmetry C_1 .


Analysis of constrained symmetry for selective dynamics:
=====================================================================
 Subroutine PRICEL returns:
 Original cell was already a primitive cell.
 

 Routine SETGRP: Setting up the symmetry group for a 
 hexagonal supercell.


 Subroutine GETGRP returns: Found  1 space group operations
 (whereof  1 operations were pure point group operations)
 out of a pool of 24 trial point group operations.


The constrained configuration has the point symmetry C_1 .


 Subroutine INISYM returns: Found  1 space group operations
 (whereof  1 operations are pure point group operations),
 and found     1 'primitive' translations

 
 
 KPOINTS: K-POINTS                                

Automatic generation of k-mesh.
Space group operators:
 irot       det(A)        alpha          n_x          n_y          n_z        tau_x        tau_y        tau_z
    1     1.000000     0.000001     1.000000     0.000000     0.000000     0.000000     0.000000     0.000000
 
 Subroutine IBZKPT returns following result:
 ===========================================
 
 Found      5 irreducible k-points:
 
 Following reciprocal coordinates:
            Coordinates               Weight
  0.000000  0.000000  0.000000      1.000000
  0.333333 -0.000000  0.000000      2.000000
  0.000000  0.333333  0.000000      2.000000
  0.333333  0.333333  0.000000      2.000000
 -0.333333  0.333333  0.000000      2.000000
 
 Following cartesian coordinates:
            Coordinates               Weight
  0.000000  0.000000  0.000000      1.000000
  0.022005  0.012705  0.000000      2.000000
  0.000000  0.025409  0.000000      2.000000
  0.022005  0.038114  0.000000      2.000000
 -0.022005  0.012705  0.000000      2.000000
 


--------------------------------------------------------------------------------------------------------




 Dimension of arrays:
   k-points           NKPTS =      5   k-points in BZ     NKDIM =      5   number of bands    NBANDS=   1008
   number of dos      NEDOS =    301   number of ions     NIONS =    169
   non local maximal  LDIM  =      6   non local SUM 2l+1 LMDIM =     18
   total plane-waves  NPLWV = 716800
   max r-space proj   IRMAX =   2102   max aug-charges    IRDMAX=   5131
   dimension x,y,z NGX =    80 NGY =   80 NGZ =  112
   dimension x,y,z NGXF=   160 NGYF=  160 NGZF=  224
   support grid    NGXF=   160 NGYF=  160 NGZF=  224
   ions per type =             144   2   9   2  12
   NGX,Y,Z   is equivalent  to a cutoff of   8.78,  8.78,  8.79 a.u.
   NGXF,Y,Z  is equivalent  to a cutoff of  17.56, 17.56, 17.58 a.u.

 SYSTEM =  x                                       
 POSCAR =  Cu  O  C  N  H                          

 Startparameter for this run:
   NWRITE =      0    write-flag & timer
   PREC   = normal    normal or accurate (medium, high low for compatibility)
   ISTART =      0    job   : 0-new  1-cont  2-samecut
   ICHARG =      2    charge: 1-file 2-atom 10-const
   ISPIN  =      1    spin polarized calculation?
   LNONCOLLINEAR =      F non collinear calculations
   LSORBIT =      F    spin-orbit coupling
   INIWAV =      1    electr: 0-lowe 1-rand  2-diag
   LASPH  =      F    aspherical Exc in radial PAW
   METAGGA=      F    non-selfconsistent MetaGGA calc.

 Electronic Relaxation 1
   ENCUT  =  450.0 eV  33.07 Ry    5.75 a.u.  26.20 26.20 36.64*2*pi/ulx,y,z
   ENINI  =  450.0     initial cutoff
   ENAUG  =  644.9 eV  augmentation charge cutoff
   NELM   =     50;   NELMIN=  5; NELMDL= -7     # of ELM steps 
   EDIFF  = 0.1E-04   stopping-criterion for ELM
   LREAL  =      T    real-space projection
   NLSPLINE    = F    spline interpolate recip. space projectors
   LCOMPAT=      F    compatible to vasp.4.4
   GGA_COMPAT  = T    GGA compatible to vasp.4.4-vasp.4.6
   LMAXPAW     = -100 max onsite density
   LMAXMIX     =    2 max onsite mixed and CHGCAR
   VOSKOWN=      0    Vosko Wilk Nusair interpolation
   ROPT   =   -0.00050  -0.00050  -0.00050  -0.00050
   ROPT   =   -0.00050
 Ionic relaxation
   EDIFFG = -.2E-01   stopping-criterion for IOM
   NSW    =    300    number of steps for IOM
   NBLOCK =      1;   KBLOCK =    300    inner block; outer block 
   IBRION =      2    ionic relax: 0-MD 1-quasi-New 2-CG
   NFREE  =      2    steps in history (QN), initial steepest desc. (CG)
   ISIF   =      2    stress and relaxation
   IWAVPR =     11    prediction:  0-non 1-charg 2-wave 3-comb
   ISYM   =      2    0-nonsym 1-usesym 2-fastsym
   LCORR  =      T    Harris-Foulkes like correction to forces

   POTIM  = 0.1500    time-step for ionic-motion
   TEIN   =    0.0    initial temperature
   TEBEG  =    0.0;   TEEND  =   0.0 temperature during run
   SMASS  =  -3.00    Nose mass-parameter (am)
   estimated Nose-frequenzy (Omega)   =  0.10E-29 period in steps =****** mass=  -0.524E-26a.u.
   SCALEE = 1.0000    scale energy and forces
   NPACO  =    256;   APACO  = 16.0  distance and # of slots for P.C.
   PSTRESS=    0.0 pullay stress

  Mass of Ions in am
   POMASS =  63.55 16.00 12.01 14.00  1.00
  Ionic Valenz
   ZVAL   =  11.00  6.00  4.00  5.00  1.00
  Atomic Wigner-Seitz radii
   RWIGS  =  -1.00 -1.00 -1.00 -1.00 -1.00
  virtual crystal weights 
   VCA    =   1.00  1.00  1.00  1.00  1.00
   NELECT =    1654.0000    total number of electrons
   NUPDOWN=      -1.0000    fix difference up-down

 DOS related values:
   EMIN   =  10.00;   EMAX   =-10.00  energy-range for DOS
   EFERMI =   0.00
   ISMEAR =     0;   SIGMA  =   0.03  broadening in eV -4-tet -1-fermi 0-gaus

 Electronic relaxation 2 (details)
   IALGO  =     68    algorithm
   LDIAG  =      T    sub-space diagonalisation (order eigenvalues)
   LSUBROT=      F    optimize rotation matrix (better conditioning)
   TURBO    =      0    0=normal 1=particle mesh
   IRESTART =      0    0=no restart 2=restart with 2 vectors
   NREBOOT  =      0    no. of reboots
   NMIN     =      0    reboot dimension
   EREF     =   0.00    reference energy to select bands
   IMIX   =      4    mixing-type and parameters
     AMIX     =   0.40;   BMIX     =  1.00
     AMIX_MAG =   1.60;   BMIX_MAG =  1.00
     AMIN     =   0.10
     WC   =   100.;   INIMIX=   1;  MIXPRE=   1;  MAXMIX= -45

 Intra band minimization:
   WEIMIN = 0.0010     energy-eigenvalue tresh-hold
   EBREAK =  0.25E-08  absolut break condition
   DEPER  =   0.30     relativ break condition  

   TIME   =   0.40     timestep for ELM

  volume/ion in A,a.u.               =      24.91       168.09
  Fermi-wavevector in a.u.,A,eV,Ry     =   1.199054  2.265884 19.561519  1.437731
  Thomas-Fermi vector in A             =   2.334927
 
 Write flags
   LWAVE        =      F    write WAVECAR
   LDOWNSAMPLE  =      F    k-point downsampling of WAVECAR
   LCHARG       =      F    write CHGCAR
   LVTOT        =      F    write LOCPOT, total local potential
   LVHAR        =      F    write LOCPOT, Hartree potential only
   LELF         =      F    write electronic localiz. function (ELF)
   LORBIT       =      0    0 simple, 1 ext, 2 COOP (PROOUT), +10 PAW based schemes


 Dipole corrections
   LMONO  =      F    monopole corrections only (constant potential shift)
   LDIPOL =      T    correct potential (dipole corrections)
   IDIPOL =      3    1-x, 2-y, 3-z, 4-all directions 
   EPSILON=  1.0000000 bulk dielectric constant

 Exchange correlation treatment:
   GGA     =    PE    GGA type
   LEXCH   =     8    internal setting for exchange type
   VOSKOWN=      0    Vosko Wilk Nusair interpolation
   LHFCALC =     F    Hartree Fock is set to
   LHFONE  =     F    Hartree Fock one center treatment
   AEXX    =    0.0000 exact exchange contribution

 Linear response parameters
   LEPSILON=     F    determine dielectric tensor
   LRPA    =     F    only Hartree local field effects (RPA)
   LNABLA  =     F    use nabla operator in PAW spheres
   LVEL    =     F    velocity operator in full k-point grid
   LINTERFAST=   F  fast interpolation
   KINTER  =     0    interpolate to denser k-point grid
   CSHIFT  =0.1000    complex shift for real part using Kramers Kronig
   OMEGAMAX=  -1.0    maximum frequency
   DEG_THRESHOLD= 0.2000000E-02 threshold for treating states as degnerate
   RTIME   =   -0.100 relaxation time in fs
  (WPLASMAI=    0.000 imaginary part of plasma frequency in eV, 0.658/RTIME)
   DFIELD  = 0.0000000 0.0000000 0.0000000 field for delta impulse in time
 
 Orbital magnetization related:
   ORBITALMAG=     F  switch on orbital magnetization
   LCHIMAG   =     F  perturbation theory with respect to B field
   DQ        =  0.001000  dq finite difference perturbation B field
   LLRAUG    =     F  two centre corrections for induced B field



--------------------------------------------------------------------------------------------------------


 conjugate gradient relaxation of ions
   using selective dynamics as specified on POSCAR
   WARNING: If single coordinates had been selected the selection of coordinates
            is made according to the corresponding   d i r e c t   coordinates!
            Don't support selection of single cartesian coordinates -- sorry ...
  !
 charge density and potential will be updated during run
 non-spin polarized calculation
 RMM-DIIS sequential band-by-band and
  variant of blocked Davidson during initial phase
 perform sub-space diagonalisation
    before iterative eigenvector-optimisation
 modified Broyden-mixing scheme, WC =      100.0
 initial mixing is a Kerker type mixing with AMIX =  0.4000 and BMIX =      1.0000
 Hartree-type preconditioning will be used
 using additional bands          181
 real space projection scheme for non local part
 use partial core corrections
 calculate Harris-corrections to forces 
   (improved forces if not selfconsistent)
 use gradient corrections 
 use of overlap-Matrix (Vanderbilt PP)
 Gauss-broadening in eV      SIGMA  =   0.03


--------------------------------------------------------------------------------------------------------


  energy-cutoff  :      450.00
  volume of cell :     4209.63
      direct lattice vectors                 reciprocal lattice vectors
    15.147900581  0.000000000  0.000000000     0.066015749  0.038114210  0.000000000
    -7.573950291 13.118466718  0.000000000     0.000000000  0.076228421  0.000000000
     0.000000000  0.000000000 21.184000015     0.000000000  0.000000000  0.047205438

  length of vectors
    15.147900581 15.147900581 21.184000015     0.076228421  0.076228421  0.047205438


 
 k-points in units of 2pi/SCALE and weight: K-POINTS                                
   0.00000000  0.00000000  0.00000000       0.111
   0.02200525  0.01270474  0.00000000       0.222
   0.00000000  0.02540947  0.00000000       0.222
   0.02200525  0.03811421  0.00000000       0.222
  -0.02200525  0.01270474  0.00000000       0.222
 
 k-points in reciprocal lattice and weights: K-POINTS                                
   0.00000000  0.00000000  0.00000000       0.111
   0.33333333 -0.00000000  0.00000000       0.222
   0.00000000  0.33333333  0.00000000       0.222
   0.33333333  0.33333333  0.00000000       0.222
  -0.33333333  0.33333333  0.00000000       0.222
 
 position of ions in fractional coordinates (direct lattice) 
   0.00000000  0.00000000  0.00000000
   0.00000000  0.16666667  0.00000000
   0.16666667  0.16666667  0.00000000
   0.16666667  0.00000000  0.00000000
   0.00000000  0.33333333  0.00000000
   0.00000000  0.50000000  0.00000000
   0.16666667  0.50000000  0.00000000
   0.16666667  0.33333333  0.00000000
   0.00000000  0.66666667  0.00000000
   0.00000000  0.83333333  0.00000000
   0.16666667  0.83333333  0.00000000
   0.16666667  0.66666667  0.00000000
   0.33333333  0.00000000  0.00000000
   0.33333333  0.16666667  0.00000000
   0.50000000  0.16666667  0.00000000
   0.50000000  0.00000000  0.00000000
   0.33333333  0.33333333  0.00000000
   0.33333333  0.50000000  0.00000000
   0.50000000  0.50000000  0.00000000
   0.50000000  0.33333333  0.00000000
   0.33333333  0.66666667  0.00000000
   0.33333333  0.83333333  0.00000000
   0.50000000  0.83333333  0.00000000
   0.50000000  0.66666667  0.00000000
   0.66666667  0.00000000  0.00000000
   0.66666667  0.16666667  0.00000000
   0.83333333  0.16666667  0.00000000
   0.83333333  0.00000000  0.00000000
   0.66666667  0.33333333  0.00000000
   0.66666667  0.50000000  0.00000000
   0.83333333  0.50000000  0.00000000
   0.83333333  0.33333333  0.00000000
   0.66666667  0.66666667  0.00000000
   0.66666667  0.83333333  0.00000000
   0.83333333  0.83333333  0.00000000
   0.83333333  0.66666667  0.00000000
   0.22222334  0.11111000  0.09731000
   0.22222334  0.27777666  0.09731000
   0.05555666  0.27777666  0.09731000
   0.05555666  0.11111000  0.09731000
   0.22222334  0.44444334  0.09731000
   0.22222334  0.61110999  0.09731000
   0.05555666  0.61110999  0.09731000
   0.05555666  0.44444334  0.09731000
   0.22222334  0.77777667  0.09731000
   0.22222334  0.94444333  0.09731000
   0.05555666  0.94444333  0.09731000
   0.05555666  0.77777667  0.09731000
   0.55555667  0.11111000  0.09731000
   0.55555667  0.27777666  0.09731000
   0.38889000  0.27777666  0.09731000
   0.38889000  0.11111000  0.09731000
   0.55555667  0.44444334  0.09731000
   0.55555667  0.61110999  0.09731000
   0.38889000  0.61110999  0.09731000
   0.38889000  0.44444334  0.09731000
   0.55555667  0.77777667  0.09731000
   0.55555667  0.94444333  0.09731000
   0.38889000  0.94444333  0.09731000
   0.38889000  0.77777667  0.09731000
   0.88889001  0.11111000  0.09731000
   0.88889001  0.27777666  0.09731000
   0.72222333  0.27777666  0.09731000
   0.72222333  0.11111000  0.09731000
   0.88889001  0.44444334  0.09731000
   0.88889001  0.61110999  0.09731000
   0.72222333  0.61110999  0.09731000
   0.72222333  0.44444334  0.09731000
   0.88889001  0.77777667  0.09731000
   0.88889001  0.94444333  0.09731000
   0.72222333  0.94444333  0.09731000
   0.72222333  0.77777667  0.09731000
   0.11111000  0.22222334  0.19331573
   0.11111000  0.05555666  0.19331573
   0.27777666  0.05555666  0.19331573
   0.27777666  0.22222334  0.19331573
   0.11111000  0.55555667  0.19331573
   0.11111000  0.38889000  0.19331573
   0.27777666  0.38889000  0.19331573
   0.27777666  0.55555667  0.19331573
   0.11111000  0.88889001  0.19331573
   0.11111000  0.72222333  0.19331573
   0.27777666  0.72222333  0.19331573
   0.27777666  0.88889001  0.19331573
   0.44444334  0.22222334  0.19331573
   0.44444333  0.05555666  0.19331573
   0.61110999  0.05555666  0.19331573
   0.61110999  0.22222334  0.19331573
   0.44444334  0.55555667  0.19331573
   0.44444333  0.38889000  0.19331573
   0.61110999  0.38889000  0.19331573
   0.61110999  0.55555667  0.19331573
   0.44444334  0.88889001  0.19331573
   0.44444333  0.72222333  0.19331573
   0.61110999  0.72222333  0.19331573
   0.61110999  0.88889001  0.19331573
   0.77777667  0.22222334  0.19331573
   0.77777667  0.05555666  0.19331573
   0.94444333  0.05555666  0.19331573
   0.94444333  0.22222334  0.19331573
   0.77777667  0.55555667  0.19331573
   0.77777667  0.38889000  0.19331573
   0.94444333  0.38889000  0.19331573
   0.94444333  0.55555667  0.19331573
   0.77777667  0.88889001  0.19331573
   0.77777667  0.72222333  0.19331573
   0.94444333  0.72222333  0.19331573
   0.94444333  0.88889001  0.19331573
   0.00000000  0.00000000  0.29280224
   0.00000000  0.16666667  0.29280224
   0.16666667  0.16666667  0.29280224
   0.16666667  0.00000000  0.29280224
   0.00000000  0.33333333  0.29280224
   0.00000000  0.50000000  0.29280224
   0.16666667  0.50000000  0.29280224
   0.16666667  0.33333333  0.29280224
   0.00000000  0.66666667  0.29280224
   0.00000000  0.83333333  0.29280224
   0.16666667  0.83333333  0.29280224
   0.16666667  0.66666667  0.29280224
   0.33333333  0.00000000  0.29280224
   0.33333333  0.16666667  0.29280224
   0.50000000  0.16666667  0.29280224
   0.50000000  0.00000000  0.29280224
   0.33333333  0.33333333  0.29280224
   0.33333333  0.50000000  0.29280224
   0.50000000  0.50000000  0.29280224
   0.50000000  0.33333333  0.29280224
   0.33333333  0.66666667  0.29280224
   0.33333333  0.83333333  0.29280224
   0.50000000  0.83333333  0.29280224
   0.50000000  0.66666667  0.29280224
   0.66666667  0.00000000  0.29280224
   0.66666667  0.16666667  0.29280224
   0.83333333  0.16666667  0.29280224
   0.83333333  0.00000000  0.29280224
   0.66666667  0.33333333  0.29280224
   0.66666667  0.50000000  0.29280224
   0.83333333  0.50000000  0.29280224
   0.83333333  0.33333333  0.29280224
   0.66666667  0.66666667  0.29280224
   0.66666667  0.83333333  0.29280224
   0.83333333  0.83333333  0.29280224
   0.83333333  0.66666667  0.29280224
   0.66316150  0.45642363  0.39795539
   0.56573271  0.28163197  0.40027007
   0.37661331  0.68283137  0.41561448
   0.40648544  0.60212266  0.41199129
   0.33333684  0.49845763  0.41091000
   0.35955259  0.42250765  0.40860378
   0.46302784  0.45039586  0.40716585
   0.53808356  0.55341048  0.40768136
   0.51041530  0.62908980  0.41023518
   0.57972831  0.37862909  0.40087892
   0.65873420  0.27804201  0.39573683
   0.58651407  0.73109152  0.41405977
   0.48615257  0.37129851  0.40515523
   0.25279429  0.47643942  0.41215398
   0.30042901  0.34221438  0.40800231
   0.61808175  0.57446014  0.40640788
   0.56867564  0.78342127  0.39829589
   0.65733700  0.74670461  0.40111770
   0.42603905  0.29914276  0.40660035
   0.41271300  0.73410602  0.45616674
   0.29375180  0.64854410  0.42063519
   0.39916121  0.73106729  0.37287847
   0.63511327  0.19690769  0.39662667
   0.69896263  0.31320026  0.35154298
   0.70940310  0.31785989  0.43569602
 
 position of ions in cartesian coordinates  (Angst):
   0.00000000  0.00000000  0.00000000
  -1.26232505  2.18641112  0.00000000
   1.26232505  2.18641112  0.00000000
   2.52465010  0.00000000  0.00000000
  -2.52465010  4.37282224  0.00000000
  -3.78697515  6.55923336  0.00000000
  -1.26232505  6.55923336  0.00000000
  -0.00000000  4.37282224  0.00000000
  -5.04930019  8.74564448  0.00000000
  -6.31162524 10.93205560  0.00000000
  -3.78697515 10.93205560  0.00000000
  -2.52465010  8.74564448  0.00000000
   5.04930019  0.00000000  0.00000000
   3.78697515  2.18641112  0.00000000
   6.31162524  2.18641112  0.00000000
   7.57395029  0.00000000  0.00000000
   2.52465010  4.37282224  0.00000000
   1.26232505  6.55923336  0.00000000
   3.78697515  6.55923336  0.00000000
   5.04930019  4.37282224  0.00000000
   0.00000000  8.74564448  0.00000000
  -1.26232505 10.93205560  0.00000000
   1.26232505 10.93205560  0.00000000
   2.52465010  8.74564448  0.00000000
  10.09860039  0.00000000  0.00000000
   8.83627534  2.18641112  0.00000000
  11.36092544  2.18641112  0.00000000
  12.62325048  0.00000000  0.00000000
   7.57395029  4.37282224  0.00000000
   6.31162524  6.55923336  0.00000000
   8.83627534  6.55923336  0.00000000
  10.09860039  4.37282224  0.00000000
   5.04930019  8.74564448  0.00000000
   3.78697515 10.93205560  0.00000000
   6.31162524 10.93205560  0.00000000
   7.57395029  8.74564448  0.00000000
   2.52467545  1.45759286  2.06141502
   1.26235048  3.64400385  2.06141502
  -1.26229977  3.64400385  2.06141502
   0.00002521  1.45759286  2.06141502
   0.00002536  5.83041510  2.06141502
  -1.26229962  8.01682609  2.06141502
  -3.78694986  8.01682609  2.06141502
  -2.52462489  5.83041510  2.06141502
  -2.52462474 10.20323734  2.06141502
  -3.78694972 12.38964833  2.06141502
  -6.31159996 12.38964833  2.06141502
  -5.04927499 10.20323734  2.06141502
   7.57397565  1.45759286  2.06141502
   6.31165067  3.64400385  2.06141502
   3.78700043  3.64400385  2.06141502
   5.04932540  1.45759286  2.06141502
   5.04932555  5.83041510  2.06141502
   3.78700057  8.01682609  2.06141502
   1.26235033  8.01682609  2.06141502
   2.52467531  5.83041510  2.06141502
   2.52467545 10.20323734  2.06141502
   1.26235048 12.38964833  2.06141502
  -1.26229977 12.38964833  2.06141502
   0.00002521 10.20323734  2.06141502
  12.62327584  1.45759286  2.06141502
  11.36095086  3.64400385  2.06141502
   8.83630062  3.64400385  2.06141502
  10.09862560  1.45759286  2.06141502
  10.09862574  5.83041510  2.06141502
   8.83630077  8.01682609  2.06141502
   6.31165052  8.01682609  2.06141502
   7.57397550  5.83041510  2.06141502
   7.57397565 10.20323734  2.06141502
   6.31165067 12.38964833  2.06141502
   3.78700043 12.38964833  2.06141502
   5.04932540 10.20323734  2.06141502
  -0.00002528  2.91522951  4.09520041
   1.26229984  0.72881826  4.09520041
   3.78694979  0.72881826  4.09520041
   2.52462467  2.91522951  4.09520041
  -2.52467538  7.28805175  4.09520041
  -1.26235026  5.10164050  4.09520041
   1.26229969  5.10164050  4.09520041
  -0.00002543  7.28805175  4.09520041
  -5.04932548 11.66087399  4.09520041
  -3.78700035  9.47446274  4.09520041
  -1.26235040  9.47446274  4.09520041
  -2.52467553 11.66087399  4.09520041
   5.04927491  2.91522951  4.09520041
   6.31160003  0.72881826  4.09520041
   8.83624998  0.72881826  4.09520041
   7.57392486  2.91522951  4.09520041
   2.52462482  7.28805175  4.09520041
   3.78694994  5.10164050  4.09520041
   6.31159989  5.10164050  4.09520041
   5.04927477  7.28805175  4.09520041
  -0.00002528 11.66087399  4.09520041
   1.26229984  9.47446274  4.09520041
   3.78694979  9.47446274  4.09520041
   2.52462467 11.66087399  4.09520041
  10.09857511  2.91522951  4.09520041
  11.36090023  0.72881826  4.09520041
  13.88555018  0.72881826  4.09520041
  12.62322506  2.91522951  4.09520041
   7.57392501  7.28805175  4.09520041
   8.83625013  5.10164050  4.09520041
  11.36090008  5.10164050  4.09520041
  10.09857496  7.28805175  4.09520041
   5.04927491 11.66087399  4.09520041
   6.31160003  9.47446274  4.09520041
   8.83624998  9.47446274  4.09520041
   7.57392486 11.66087399  4.09520041
   0.00000000  0.00000000  6.20272268
  -1.26232505  2.18641112  6.20272268
   1.26232505  2.18641112  6.20272268
   2.52465010  0.00000000  6.20272268
  -2.52465010  4.37282224  6.20272268
  -3.78697515  6.55923336  6.20272268
  -1.26232505  6.55923336  6.20272268
  -0.00000000  4.37282224  6.20272268
  -5.04930019  8.74564448  6.20272268
  -6.31162524 10.93205560  6.20272268
  -3.78697515 10.93205560  6.20272268
  -2.52465010  8.74564448  6.20272268
   5.04930019  0.00000000  6.20272268
   3.78697515  2.18641112  6.20272268
   6.31162524  2.18641112  6.20272268
   7.57395029  0.00000000  6.20272268
   2.52465010  4.37282224  6.20272268
   1.26232505  6.55923336  6.20272268
   3.78697515  6.55923336  6.20272268
   5.04930019  4.37282224  6.20272268
   0.00000000  8.74564448  6.20272268
  -1.26232505 10.93205560  6.20272268
   1.26232505 10.93205560  6.20272268
   2.52465010  8.74564448  6.20272268
  10.09860039  0.00000000  6.20272268
   8.83627534  2.18641112  6.20272268
  11.36092544  2.18641112  6.20272268
  12.62325048  0.00000000  6.20272268
   7.57395029  4.37282224  6.20272268
   6.31162524  6.55923336  6.20272268
   8.83627534  6.55923336  6.20272268
  10.09860039  4.37282224  6.20272268
   5.04930019  8.74564448  6.20272268
   3.78697515 10.93205560  6.20272268
   6.31162524 10.93205560  6.20272268
   7.57395029  8.74564448  6.20272268
   6.58857464  5.98757818  8.43028694
   6.43659640  3.69457959  8.47932108
   0.53317014  8.95770063  8.80437710
   1.59695398  7.89892604  8.72762343
   1.27406000  6.53899979  8.70471747
   2.24641505  5.54265249  8.65586240
   3.60262377  5.90850310  8.62540147
   3.95933287  7.25989697  8.63632200
   2.96702538  8.25269363  8.69042201
   5.91394892  4.96703316  8.49221913
   7.87256378  3.64748482  8.38328900
   3.34720601  9.59079972  8.77144215
   4.55199443  4.87086712  8.58280834
   0.22077420  6.25015470  8.73106999
   1.95895405  4.48932791  8.64312100
   5.01170841  7.53603620  8.60934456
   2.68064827 10.27728582  8.43750004
   4.30177191  9.79561956  8.49727739
   4.18790475  3.92429438  8.61342173
   0.69165299  9.63034533  9.66343613
  -0.46231765  8.50790420  8.91073580
   0.50938697  9.59048195  7.89905753
   8.12926359  2.58312699  8.40213940
   8.21565315  4.10870724  7.44708655
   8.33851261  4.16983444  9.22978445
 


--------------------------------------------------------------------------------------------------------


 k-point  1 :   0.0000 0.0000 0.0000  plane waves:   91267
 k-point  2 :   0.3333-0.0000 0.0000  plane waves:   91252
 k-point  3 :   0.0000 0.3333 0.0000  plane waves:   91252
 k-point  4 :   0.3333 0.3333 0.0000  plane waves:   91296
 k-point  5 :  -0.3333 0.3333 0.0000  plane waves:   91252

 maximum and minimum number of plane-waves per node :     91296    91252

 maximum number of plane-waves:     91296
 maximum index in each direction: 
   IXMAX=   26   IYMAX=   26   IZMAX=   36
   IXMIN=  -26   IYMIN=  -26   IZMIN=  -36


 serial   3D FFT for wavefunctions
 parallel 3D FFT for charge:
    minimum data exchange during FFTs selected (reduces bandwidth)


 total amount of memory used by VASP MPI-rank0   291975. kBytes
=======================================================================

   base      :      30000. kBytes
   nonlr-proj:      53400. kBytes
   fftplans  :       7568. kBytes
   grid      :      40325. kBytes
   one-center:       2628. kBytes
   wavefun   :     158054. kBytes
 
     INWAV:  cpu time    0.0000: real time    0.0003
 Broyden mixing: mesh for mixing (old mesh)
   NGX = 53   NGY = 53   NGZ = 73
  (NGX  =160   NGY  =160   NGZ  =224)
  gives a total of 205057 points

 initial charge density was supplied:
 charge density of overlapping atoms calculated
 number of electron    1654.0000000 magnetization 
 keeping initial charge density in first step


--------------------------------------------------------------------------------------------------------


 Maximum index for non-local projection operator         2025
 Maximum index for augmentation-charges          319 (set IRDMAX)


--------------------------------------------------------------------------------------------------------


 First call to EWALD:  gamma=   0.110
 Maximum number of real-space cells 3x 3x 2
 Maximum number of reciprocal cells 3x 3x 3

    FEWALD:  cpu time    0.0065: real time    0.0065


--------------------------------------- Iteration      1(   1)  ---------------------------------------


    POTLOK:  cpu time    0.1226: real time    0.1507
    SETDIJ:  cpu time    0.0130: real time    0.0227
     EDDAV:  cpu time   51.4909: real time   51.5414
       DOS:  cpu time    0.0014: real time    0.0048
    --------------------------------------------
      LOOP:  cpu time   51.6280: real time   51.7196

 eigenvalue-minimisations  : 10080
 total energy-change (2. order) : 0.1617947E+05  (-0.6476696E+05)
 number of electron    1654.0000000 magnetization 
 augmentation part     1654.0000000 magnetization 

 DIPCOR: dipole corrections for dipol
 direction  3 min pos   147,
 dipolmoment           0.000000      0.000000     -0.001899 electrons x Angstroem
 Tr[quadrupol]    -66505.225621

 energy correction for charged system         0.000000 eV
 dipol+quadrupol energy correction           -0.000000 eV
 added-field ion interaction          0.014617 eV  (added to PSCEN)


 Free energy of the ion-electron system (eV)
  ---------------------------------------------------
  alpha Z        PSCENC =      3880.86731253
  Ewald energy   TEWEN  =    611025.26616942
  -Hartree energ DENC   =   -807560.15665611
  -exchange      EXHF   =         0.00000000
  -V(xc)+E(xc)   XCENC  =      6818.66484363
  PAW double counting   =    178967.03018613  -194219.46092503
  entropy T*S    EENTRO =        -0.02344482
  eigenvalues    EBANDS =     14099.60968863
  atomic energy  EATOM  =    203167.67369484
  Solvation  Ediel_sol  =         0.00000000
  ---------------------------------------------------
  free energy    TOTEN  =     16179.47086922 eV

  energy without entropy =    16179.49431403  energy(sigma->0) =    16179.48259162


--------------------------------------------------------------------------------------------------------




--------------------------------------- Iteration      1(   2)  ---------------------------------------


     EDDAV:  cpu time   51.1437: real time   51.1589
       DOS:  cpu time    0.0011: real time    0.0011
    --------------------------------------------
      LOOP:  cpu time   51.1448: real time   51.1600

 eigenvalue-minimisations  : 10080
 total energy-change (2. order) :-0.1411391E+05  (-0.1358844E+05)
 number of electron    1654.0000000 magnetization 
 augmentation part     1654.0000000 magnetization 

 DIPCOR: dipole corrections for dipol
 direction  3 min pos   147,
 dipolmoment           0.000000      0.000000     -0.001899 electrons x Angstroem
 Tr[quadrupol]    -66505.225621

 energy correction for charged system         0.000000 eV
 dipol+quadrupol energy correction           -0.000000 eV
 added-field ion interaction          0.014617 eV  (added to PSCEN)


 Free energy of the ion-electron system (eV)
  ---------------------------------------------------
  alpha Z        PSCENC =      3880.86731253
  Ewald energy   TEWEN  =    611025.26616942
  -Hartree energ DENC   =   -807560.15665611
  -exchange      EXHF   =         0.00000000
  -V(xc)+E(xc)   XCENC  =      6818.66484363
  PAW double counting   =    178967.03018613  -194219.46092503
  entropy T*S    EENTRO =        -0.02340395
  eigenvalues    EBANDS =       -14.30188917
  atomic energy  EATOM  =    203167.67369484
  Solvation  Ediel_sol  =         0.00000000
  ---------------------------------------------------
  free energy    TOTEN  =      2065.55933227 eV

  energy without entropy =     2065.58273622  energy(sigma->0) =     2065.57103425


--------------------------------------------------------------------------------------------------------




--------------------------------------- Iteration      1(   3)  ---------------------------------------


     EDDAV:  cpu time   58.6563: real time   58.6744
       DOS:  cpu time    0.0012: real time    0.0012
    --------------------------------------------
      LOOP:  cpu time   58.6574: real time   58.6756

 eigenvalue-minimisations  : 11952
 total energy-change (2. order) :-0.2556950E+04  (-0.2333649E+04)
 number of electron    1654.0000000 magnetization 
 augmentation part     1654.0000000 magnetization 

 DIPCOR: dipole corrections for dipol
 direction  3 min pos   147,
 dipolmoment           0.000000      0.000000     -0.001899 electrons x Angstroem
 Tr[quadrupol]    -66505.225621

 energy correction for charged system         0.000000 eV
 dipol+quadrupol energy correction           -0.000000 eV
 added-field ion interaction          0.014617 eV  (added to PSCEN)


 Free energy of the ion-electron system (eV)
  ---------------------------------------------------
  alpha Z        PSCENC =      3880.86731253
  Ewald energy   TEWEN  =    611025.26616942
  -Hartree energ DENC   =   -807560.15665611
  -exchange      EXHF   =         0.00000000
  -V(xc)+E(xc)   XCENC  =      6818.66484363
  PAW double counting   =    178967.03018613  -194219.46092503
  entropy T*S    EENTRO =        -0.03587715
  eigenvalues    EBANDS =     -2571.23903558
  atomic energy  EATOM  =    203167.67369484
  Solvation  Ediel_sol  =         0.00000000
  ---------------------------------------------------
  free energy    TOTEN  =      -491.39028733 eV

  energy without entropy =     -491.35441018  energy(sigma->0) =     -491.37234875


--------------------------------------------------------------------------------------------------------




--------------------------------------- Iteration      1(   4)  ---------------------------------------


     EDDAV:  cpu time   84.2825: real time   84.3186
       DOS:  cpu time    0.0011: real time    0.0011
    --------------------------------------------
      LOOP:  cpu time   84.2836: real time   84.3198

 eigenvalue-minimisations  : 17376
 total energy-change (2. order) :-0.2890839E+03  (-0.2791668E+03)
 number of electron    1654.0000000 magnetization 
 augmentation part     1654.0000000 magnetization 

 DIPCOR: dipole corrections for dipol
 direction  3 min pos   147,
 dipolmoment           0.000000      0.000000     -0.001899 electrons x Angstroem
 Tr[quadrupol]    -66505.225621

 energy correction for charged system         0.000000 eV
 dipol+quadrupol energy correction           -0.000000 eV
 added-field ion interaction          0.014617 eV  (added to PSCEN)


 Free energy of the ion-electron system (eV)
  ---------------------------------------------------
  alpha Z        PSCENC =      3880.86731253
  Ewald energy   TEWEN  =    611025.26616942
  -Hartree energ DENC   =   -807560.15665611
  -exchange      EXHF   =         0.00000000
  -V(xc)+E(xc)   XCENC  =      6818.66484363
  PAW double counting   =    178967.03018613  -194219.46092503
  entropy T*S    EENTRO =        -0.04407221
  eigenvalues    EBANDS =     -2860.31475934
  atomic energy  EATOM  =    203167.67369484
  Solvation  Ediel_sol  =         0.00000000
  ---------------------------------------------------
  free energy    TOTEN  =      -780.47420616 eV

  energy without entropy =     -780.43013395  energy(sigma->0) =     -780.45217005


--------------------------------------------------------------------------------------------------------




--------------------------------------- Iteration      1(   5)  ---------------------------------------


     EDDAV:  cpu time   71.6651: real time   71.7018
       DOS:  cpu time    0.0011: real time    0.0011
    --------------------------------------------
      LOOP:  cpu time   71.6662: real time   71.7029

 eigenvalue-minimisations  : 15264
 total energy-change (2. order) :-0.1330608E+02  (-0.1309493E+02)
 number of electron    1654.0000000 magnetization 
 augmentation part     1654.0000000 magnetization 

 DIPCOR: dipole corrections for dipol
 direction  3 min pos   147,
 dipolmoment           0.000000      0.000000     -0.001899 electrons x Angstroem
 Tr[quadrupol]    -66505.225621

 energy correction for charged system         0.000000 eV
 dipol+quadrupol energy correction           -0.000000 eV
 added-field ion interaction          0.014617 eV  (added to PSCEN)


 Free energy of the ion-electron system (eV)
  ---------------------------------------------------
  alpha Z        PSCENC =      3880.86731253
  Ewald energy   TEWEN  =    611025.26616942
  -Hartree energ DENC   =   -807560.15665611
  -exchange      EXHF   =         0.00000000
  -V(xc)+E(xc)   XCENC  =      6818.66484363
  PAW double counting   =    178967.03018613  -194219.46092503
  entropy T*S    EENTRO =        -0.05140343
  eigenvalues    EBANDS =     -2873.61351048
  atomic energy  EATOM  =    203167.67369484
  Solvation  Ediel_sol  =         0.00000000
  ---------------------------------------------------
  free energy    TOTEN  =      -793.78028851 eV

  energy without entropy =     -793.72888508  energy(sigma->0) =     -793.75458680


--------------------------------------------------------------------------------------------------------




--------------------------------------- Iteration      1(   6)  ---------------------------------------


     EDDAV:  cpu time   72.5191: real time   72.5589
       DOS:  cpu time    0.0012: real time    0.0012
    --------------------------------------------
      LOOP:  cpu time   72.5203: real time   72.5601

 eigenvalue-minimisations  : 15504
 total energy-change (2. order) :-0.3571590E+00  (-0.3556119E+00)
 number of electron    1654.0000000 magnetization 
 augmentation part     1654.0000000 magnetization 

 DIPCOR: dipole corrections for dipol
 direction  3 min pos   147,
 dipolmoment           0.000000      0.000000     -0.001899 electrons x Angstroem
 Tr[quadrupol]    -66505.225621

 energy correction for charged system         0.000000 eV
 dipol+quadrupol energy correction           -0.000000 eV
 added-field ion interaction          0.014617 eV  (added to PSCEN)


 Free energy of the ion-electron system (eV)
  ---------------------------------------------------
  alpha Z        PSCENC =      3880.86731253
  Ewald energy   TEWEN  =    611025.26616942
  -Hartree energ DENC   =   -807560.15665611
  -exchange      EXHF   =         0.00000000
  -V(xc)+E(xc)   XCENC  =      6818.66484363
  PAW double counting   =    178967.03018613  -194219.46092503
  entropy T*S    EENTRO =        -0.05155540
  eigenvalues    EBANDS =     -2873.97051754
  atomic energy  EATOM  =    203167.67369484
  Solvation  Ediel_sol  =         0.00000000
  ---------------------------------------------------
  free energy    TOTEN  =      -794.13744754 eV

  energy without entropy =     -794.08589215  energy(sigma->0) =     -794.11166984


--------------------------------------------------------------------------------------------------------




--------------------------------------- Iteration      1(   7)  ---------------------------------------


     EDDAV:  cpu time   72.9037: real time   72.9203
       DOS:  cpu time    0.0011: real time    0.0011
    CHARGE:  cpu time    2.0878: real time    2.1017
    MIXING:  cpu time    0.0036: real time    0.0048
    --------------------------------------------
      LOOP:  cpu time   74.9963: real time   75.0279

 eigenvalue-minimisations  : 15600
 total energy-change (2. order) :-0.1017382E-01  (-0.1016506E-01)
 number of electron    1653.9999942 magnetization 
 augmentation part      937.2209267 magnetization 

 DIPCOR: dipole corrections for dipol
 direction  3 min pos   147,
 dipolmoment           0.000000      0.000000     -0.001899 electrons x Angstroem
 Tr[quadrupol]    -66505.225621

 energy correction for charged system         0.000000 eV
 dipol+quadrupol energy correction           -0.000000 eV
 added-field ion interaction          0.014617 eV  (added to PSCEN)


 Broyden mixing:
  rms(total) = 0.95021E+01    rms(broyden)= 0.95013E+01
  rms(prec ) = 0.10174E+02
  weight for this iteration     100.00

 Free energy of the ion-electron system (eV)
  ---------------------------------------------------
  alpha Z        PSCENC =      3880.86731253
  Ewald energy   TEWEN  =    611025.26616942
  -Hartree energ DENC   =   -807560.15665611
  -exchange      EXHF   =         0.00000000
  -V(xc)+E(xc)   XCENC  =      6818.66484363
  PAW double counting   =    178967.03018613  -194219.46092503
  entropy T*S    EENTRO =        -0.05155983
  eigenvalues    EBANDS =     -2873.98068693
  atomic energy  EATOM  =    203167.67369484
  Solvation  Ediel_sol  =         0.00000000
  ---------------------------------------------------
  free energy    TOTEN  =      -794.14762136 eV

  energy without entropy =     -794.09606153  energy(sigma->0) =     -794.12184145


--------------------------------------------------------------------------------------------------------




--------------------------------------- Iteration      1(   8)  ---------------------------------------


    POTLOK:  cpu time    0.1103: real time    0.1104
    SETDIJ:  cpu time    0.0125: real time    0.0125
    EDDIAG:  cpu time   10.0306: real time   10.0343
  RMM-DIIS:  cpu time   24.0188: real time   24.0237
    ORTHCH:  cpu time    3.2566: real time    3.2571
       DOS:  cpu time    0.0013: real time    0.0013
    CHARGE:  cpu time    2.0824: real time    2.0827
    MIXING:  cpu time    0.0035: real time    0.0088
    --------------------------------------------
      LOOP:  cpu time   39.5161: real time   39.5309

 eigenvalue-minimisations  : 10150
 total energy-change (2. order) : 0.5632945E+02  (-0.1587361E+03)
 number of electron    1653.9999939 magnetization 
 augmentation part     1062.0550428 magnetization 

 DIPCOR: dipole corrections for dipol
 direction  3 min pos   152,
 dipolmoment           0.000000      0.000000      2.143593 electrons x Angstroem
 Tr[quadrupol]    -66496.557402

 energy correction for charged system         0.000000 eV
 dipol+quadrupol energy correction           -0.099230 eV
 added-field ion interaction         55.914430 eV  (added to PSCEN)


 Broyden mixing:
  rms(total) = 0.55219E+01    rms(broyden)= 0.55204E+01
  rms(prec ) = 0.62050E+01
  weight for this iteration     100.00

 eigenvalues of (default mixing * dielectric matrix)
  average eigenvalue GAMMA=   0.6398
  0.6398

 Free energy of the ion-electron system (eV)
  ---------------------------------------------------
  alpha Z        PSCENC =      3936.66789484
  Ewald energy   TEWEN  =    611025.26616942
  -Hartree energ DENC   =   -803217.63268448
  -exchange      EXHF   =         0.00000000
  -V(xc)+E(xc)   XCENC  =      6627.25665002
  PAW double counting   =    182743.23285030  -197192.25703491
  entropy T*S    EENTRO =        -0.00632131
  eigenvalues    EBANDS =     -7828.01939414
  atomic energy  EATOM  =    203167.67369484
  Solvation  Ediel_sol  =         0.00000000
  ---------------------------------------------------
  free energy    TOTEN  =      -737.81817543 eV

  energy without entropy =     -737.81185412  energy(sigma->0) =     -737.81501477


--------------------------------------------------------------------------------------------------------




--------------------------------------- Iteration      1(   9)  ---------------------------------------


    POTLOK:  cpu time    0.1089: real time    0.1101
    SETDIJ:  cpu time    0.0126: real time    0.0125
    EDDIAG:  cpu time    9.9005: real time    9.9048
  RMM-DIIS:  cpu time   24.2786: real time   24.2931
    ORTHCH:  cpu time    3.2533: real time    3.2544
       DOS:  cpu time    0.0011: real time    0.0011
    CHARGE:  cpu time    2.0874: real time    2.0886
    MIXING:  cpu time    0.0033: real time    0.0034
    --------------------------------------------
      LOOP:  cpu time   39.6457: real time   39.6680

 eigenvalue-minimisations  : 10226
 total energy-change (2. order) : 0.5742864E+02  (-0.2927248E+02)
 number of electron    1653.9999969 magnetization 
 augmentation part     1009.3644256 magnetization 

 DIPCOR: dipole corrections for dipol
 direction  3 min pos   154,
 dipolmoment           0.000000      0.000000     -3.044081 electrons x Angstroem
 Tr[quadrupol]    -66509.662156

 energy correction for charged system         0.000000 eV
 dipol+quadrupol energy correction           -0.200112 eV
 added-field ion interaction       -120.534676 eV  (added to PSCEN)


 Broyden mixing:
  rms(total) = 0.22099E+01    rms(broyden)= 0.22092E+01
  rms(prec ) = 0.40228E+01
  weight for this iteration     100.00

 eigenvalues of (default mixing * dielectric matrix)
  average eigenvalue GAMMA=   0.5325
  0.6897  0.3754

 Free energy of the ion-electron system (eV)
  ---------------------------------------------------
  alpha Z        PSCENC =      3760.11790764
  Ewald energy   TEWEN  =    611025.26616942
  -Hartree energ DENC   =   -805272.94833047
  -exchange      EXHF   =         0.00000000
  -V(xc)+E(xc)   XCENC  =      6693.68301643
  PAW double counting   =    187217.29704856  -202376.47625087
  entropy T*S    EENTRO =        -0.01153055
  eigenvalues    EBANDS =     -4894.99126371
  atomic energy  EATOM  =    203167.67369484
  Solvation  Ediel_sol  =         0.00000000
  ---------------------------------------------------
  free energy    TOTEN  =      -680.38953872 eV

  energy without entropy =     -680.37800817  energy(sigma->0) =     -680.38377344


--------------------------------------------------------------------------------------------------------




--------------------------------------- Iteration      1(  10)  ---------------------------------------


    POTLOK:  cpu time    0.1067: real time    0.1076
    SETDIJ:  cpu time    0.0126: real time    0.0126
    EDDIAG:  cpu time    9.9577: real time    9.9661
  RMM-DIIS:  cpu time   24.4530: real time   24.4688
    ORTHCH:  cpu time    3.2681: real time    3.2691
       DOS:  cpu time    0.0011: real time    0.0011
    CHARGE:  cpu time    2.0828: real time    2.0834
    MIXING:  cpu time    0.0033: real time    0.0033
    --------------------------------------------
      LOOP:  cpu time   39.8854: real time   39.9121

 eigenvalue-minimisations  : 10314
 total energy-change (2. order) : 0.1994200E+02  (-0.1133087E+01)
 number of electron    1653.9999937 magnetization 
 augmentation part     1012.7075292 magnetization 

 DIPCOR: dipole corrections for dipol
 direction  3 min pos   158,
 dipolmoment           0.000000      0.000000      0.330520 electrons x Angstroem
 Tr[quadrupol]    -66516.252318

 energy correction for charged system         0.000000 eV
 dipol+quadrupol energy correction           -0.002359 eV
 added-field ion interaction         22.019334 eV  (added to PSCEN)


 Broyden mixing:
  rms(total) = 0.12346E+01    rms(broyden)= 0.12343E+01
  rms(prec ) = 0.16084E+01
  weight for this iteration     100.00

 eigenvalues of (default mixing * dielectric matrix)
  average eigenvalue GAMMA=   0.8078
  1.6392  0.6102  0.1741

 Free energy of the ion-electron system (eV)
  ---------------------------------------------------
  alpha Z        PSCENC =      3902.86966987
  Ewald energy   TEWEN  =    611025.26616942
  -Hartree energ DENC   =   -805338.45882639
  -exchange      EXHF   =         0.00000000
  -V(xc)+E(xc)   XCENC  =      6692.46761679
  PAW double counting   =    188196.92569919  -203416.90392953
  entropy T*S    EENTRO =        -0.02194113
  eigenvalues    EBANDS =     -4890.26569553
  atomic energy  EATOM  =    203167.67369484
  Solvation  Ediel_sol  =         0.00000000
  ---------------------------------------------------
  free energy    TOTEN  =      -660.44754247 eV

  energy without entropy =     -660.42560134  energy(sigma->0) =     -660.43657191


--------------------------------------------------------------------------------------------------------




--------------------------------------- Iteration      1(  11)  ---------------------------------------


    POTLOK:  cpu time    0.1077: real time    0.1080
    SETDIJ:  cpu time    0.0126: real time    0.0126
    EDDIAG:  cpu time   13.7910: real time   14.4212
[...]
    --------------------------------------------
      LOOP:  cpu time   36.7347: real time   36.7526

 eigenvalue-minimisations  :  8704
 total energy-change (2. order) :-0.2711033E-04  (-0.3394049E-04)
 number of electron    1653.9999285 magnetization 
 augmentation part     1012.9773910 magnetization 

 DIPCOR: dipole corrections for dipol
 direction  3 min pos   154,
 dipolmoment           0.000000      0.000000     -0.497468 electrons x Angstroem
 Tr[quadrupol]    -66504.340698

 energy correction for charged system         0.000000 eV
 dipol+quadrupol energy correction           -0.005344 eV
 added-field ion interaction        -17.935009 eV  (added to PSCEN)


 eigenvalues of (default mixing * dielectric matrix)
  average eigenvalue GAMMA=   1.4144
  1.4144

  free energy =  -0.659530484697E+03  energy without entropy=  -0.659481959757E+03


--------------------------------------------------------------------------------------------------------




--------------------------------------- Iteration    193(   3)  ---------------------------------------


    POTLOK:  cpu time    0.1100: real time    0.1100
    SETDIJ:  cpu time    0.0124: real time    0.0124
    EDDIAG:  cpu time    9.9239: real time    9.9312
  RMM-DIIS:  cpu time   15.2929: real time   15.2992
    ORTHCH:  cpu time    3.2508: real time    3.2517
       DOS:  cpu time    0.0011: real time    0.0011
    CHARGE:  cpu time    2.1101: real time    2.1109
    MIXING:  cpu time    0.0035: real time    0.0035
    --------------------------------------------
      LOOP:  cpu time   30.7047: real time   30.7201

 eigenvalue-minimisations  :  6194
 total energy-change (2. order) :-0.1787918E-04  (-0.4753899E-05)
 number of electron    1653.9999285 magnetization 
 augmentation part     1012.9757559 magnetization 

 DIPCOR: dipole corrections for dipol
 direction  3 min pos   154,
 dipolmoment           0.000000      0.000000     -0.500096 electrons x Angstroem
 Tr[quadrupol]    -66504.337523

 energy correction for charged system         0.000000 eV
 dipol+quadrupol energy correction           -0.005401 eV
 added-field ion interaction        -18.029742 eV  (added to PSCEN)


 eigenvalues of (default mixing * dielectric matrix)
  average eigenvalue GAMMA=   1.0250
  1.7248  0.3252

  free energy =  -0.659530502576E+03  energy without entropy=  -0.659481919469E+03


--------------------------------------------------------------------------------------------------------




--------------------------------------- Iteration    193(   4)  ---------------------------------------


    POTLOK:  cpu time    0.1088: real time    0.1101
    SETDIJ:  cpu time    0.0124: real time    0.0124
    EDDIAG:  cpu time    9.8090: real time    9.8156
  RMM-DIIS:  cpu time   14.1142: real time   14.1207
    ORTHCH:  cpu time    3.2796: real time    3.2802
       DOS:  cpu time    0.0012: real time    0.0012
    CHARGE:  cpu time    2.0991: real time    2.0998
    MIXING:  cpu time    0.0036: real time    0.0036
    --------------------------------------------
      LOOP:  cpu time   29.4279: real time   29.4436

 eigenvalue-minimisations  :  5751
 total energy-change (2. order) : 0.1672033E-04  (-0.1377873E-05)
 number of electron    1653.9999285 magnetization 
 augmentation part     1012.9765785 magnetization 

 DIPCOR: dipole corrections for dipol
 direction  3 min pos   154,
 dipolmoment           0.000000      0.000000     -0.496740 electrons x Angstroem
 Tr[quadrupol]    -66504.341473

 energy correction for charged system         0.000000 eV
 dipol+quadrupol energy correction           -0.005329 eV
 added-field ion interaction        -17.908750 eV  (added to PSCEN)


 eigenvalues of (default mixing * dielectric matrix)
  average eigenvalue GAMMA=   1.0680
  2.1489  0.8619  0.1932

  free energy =  -0.659530485856E+03  energy without entropy=  -0.659481938158E+03


--------------------------------------------------------------------------------------------------------




--------------------------------------- Iteration    193(   5)  ---------------------------------------


    POTLOK:  cpu time    0.1099: real time    0.1102
    SETDIJ:  cpu time    0.0124: real time    0.0124
    EDDIAG:  cpu time    9.9084: real time    9.9181
  RMM-DIIS:  cpu time   13.7093: real time   13.7163
    ORTHCH:  cpu time    3.2666: real time    3.2672
       DOS:  cpu time    0.0011: real time    0.0011
    --------------------------------------------
      LOOP:  cpu time   27.0076: real time   27.0253

 eigenvalue-minimisations  :  5575
 total energy-change (2. order) : 0.1562148E-05  (-0.7097996E-06)
 number of electron    1653.9999285 magnetization 
 augmentation part     1012.9765785 magnetization 

 DIPCOR: dipole corrections for dipol
 direction  3 min pos   154,
 dipolmoment           0.000000      0.000000     -0.497870 electrons x Angstroem
 Tr[quadrupol]    -66504.338779

 energy correction for charged system         0.000000 eV
 dipol+quadrupol energy correction           -0.005353 eV
 added-field ion interaction        -17.949487 eV  (added to PSCEN)


  free energy =  -0.659530484294E+03  energy without entropy=  -0.659481969620E+03


--------------------------------------------------------------------------------------------------------




------------------------ aborting loop because EDIFF is reached ----------------------------------------


    CHARGE:  cpu time    2.0884: real time    2.0891
    FORLOC:  cpu time    0.0878: real time    0.0878
    FORNL :  cpu time    8.2680: real time    8.2708
    STRESS:  cpu time   24.6843: real time   24.6991
    FORCOR:  cpu time    0.1635: real time    0.1636
    FORHAR:  cpu time    0.1059: real time    0.1059
    MIXING:  cpu time    0.0038: real time    0.0038
    OFIELD:  cpu time    0.0001: real time    0.0001

  Number of pair interactions contributing to vdW energy:  899502
  Edisp (eV):  -12.64321
    FORVDW:  cpu time    0.1292: real time    0.1293

  FORCE on cell =-STRESS in cart. coord.  units (eV):
  Direction    XX          YY          ZZ          XY          YZ          ZX
  --------------------------------------------------------------------------------------
  Alpha Z  3880.85270  3880.85270  3880.85270
  Ewald  695337.33876694896.94115************ -1231.80956   -25.88641   201.17757
  Hartree749103.37320748686.76934************ -1110.48605   -18.89528   148.32758
  E(xc)   -9527.55006 -9527.38825 -9551.14435    -0.07229    -0.01314     0.20913
  Local  ************************************  2350.09391    41.66397  -344.39145
  n-local -3178.23292 -3181.84914 -3272.25577    -2.56386    -0.13418     0.28558
  augment 13624.40076 13624.10755 13693.34168    -0.13595     0.24303    -0.19148
  Kinetic 14013.99993 14008.54980 14240.25697    -5.10262     2.77379    -5.37916
  Fock        0.00000     0.00000     0.00000     0.00000     0.00000     0.00000
  vdW       -16.65726   -16.57975   -13.48119     0.14471     0.03389     0.02965
  -------------------------------------------------------------------------------------
  Total      12.17964    11.20417    -4.45319     0.06830    -0.21434     0.06742
  in kB       4.63555     4.26429    -1.69488     0.02599    -0.08158     0.02566
  external pressure =        2.40 kB  Pullay stress =        0.00 kB



--------------------------------------------------------------------------------------------------------



  FREE ENERGIE OF THE ION-ELECTRON SYSTEM (eV)
  ---------------------------------------------------
  free  energy   TOTEN  =      -672.17369754 eV

  energy  without entropy=     -672.12518287  energy(sigma->0) =     -672.14944021
 
 d Force = 0.1953563E-04[-0.452E-05, 0.436E-04]  d Energy = 0.5024812E-05 0.145E-04
 d Force = 0.5614332E+01[ 0.561E+01, 0.561E+01]  d Ewald  = 0.5614332E+01 0.362E-07


--------------------------------------------------------------------------------------------------------


    POTLOK:  cpu time    0.1240: real time    0.1240


--------------------------------------------------------------------------------------------------------




--------------------------------------------------------------------------------------------------------


    WAVPRE:  cpu time    0.0841: real time    0.0854
    FEWALD:  cpu time    0.0048: real time    0.0048
    ORTHCH:  cpu time    5.9513: real time    5.9562
     LOOP+:  cpu time  223.8230: real time  223.9378


--------------------------------------- Iteration    194(   1)  ---------------------------------------


    POTLOK:  cpu time    0.1106: real time    0.1108
    SETDIJ:  cpu time    0.0125: real time    0.0125
     EDDAV:  cpu time   51.1820: real time   51.2068
       DOS:  cpu time    0.0011: real time    0.0011
    CHARGE:  cpu time    2.1656: real time    2.1661
    MIXING:  cpu time    0.0030: real time    0.0030
    --------------------------------------------
      LOOP:  cpu time   53.4748: real time   53.5004

 eigenvalue-minimisations  : 10080
 total energy-change (2. order) :-0.1402086E-03  (-0.1496549E-02)
 number of electron    1653.9999285 magnetization 
 augmentation part     1012.9770216 magnetization 

 DIPCOR: dipole corrections for dipol
 direction  3 min pos   154,
 dipolmoment           0.000000      0.000000     -0.497747 electrons x Angstroem
 Tr[quadrupol]    -66504.443878

 energy correction for charged system         0.000000 eV
 dipol+quadrupol energy correction           -0.005350 eV
 added-field ion interaction        -17.944589 eV  (added to PSCEN)


  free energy =  -0.659530626064E+03  energy without entropy=  -0.659482069359E+03


--------------------------------------------------------------------------------------------------------




--------------------------------------- Iteration    194(   2)  ---------------------------------------


    POTLOK:  cpu time    0.1093: real time    0.1098
    SETDIJ:  cpu time    0.0124: real time    0.0124
    EDDIAG:  cpu time    9.8241: real time    9.8316
  RMM-DIIS:  cpu time   20.3478: real time   20.3581
    ORTHCH:  cpu time    3.2627: real time    3.2635
       DOS:  cpu time    0.0012: real time    0.0012
    CHARGE:  cpu time    2.3589: real time    2.3741
    MIXING:  cpu time    0.0098: real time    0.0098
    --------------------------------------------
      LOOP:  cpu time   35.9263: real time   35.9606

 eigenvalue-minimisations  :  8238
 total energy-change (2. order) :-0.2386284E-04  (-0.2984763E-04)
 number of electron    1653.9999285 magnetization 
 augmentation part     1012.9774198 magnetization 

 DIPCOR: dipole corrections for dipol
 direction  3 min pos   154,
 dipolmoment           0.000000      0.000000     -0.497067 electrons x Angstroem
 Tr[quadrupol]    -66504.443589

 energy correction for charged system         0.000000 eV
 dipol+quadrupol energy correction           -0.005336 eV
 added-field ion interaction        -17.920087 eV  (added to PSCEN)


 eigenvalues of (default mixing * dielectric matrix)
  average eigenvalue GAMMA=   1.3330
  1.3330

  free energy =  -0.659530649927E+03  energy without entropy=  -0.659482121127E+03


--------------------------------------------------------------------------------------------------------




--------------------------------------- Iteration    194(   3)  ---------------------------------------


    POTLOK:  cpu time    0.1654: real time    0.1663
    SETDIJ:  cpu time    0.0229: real time    0.0229
    EDDIAG:  cpu time   14.1421: real time   14.1554
  RMM-DIIS:  cpu time   15.4373: real time   15.4453
    ORTHCH:  cpu time    3.2396: real time    3.2439
       DOS:  cpu time    0.0011: real time    0.0011
    CHARGE:  cpu time    2.0903: real time    2.0911
    MIXING:  cpu time    0.0034: real time    0.0034
    --------------------------------------------
      LOOP:  cpu time   35.1021: real time   35.1295

 eigenvalue-minimisations  :  6260
 total energy-change (2. order) :-0.2074215E-04  (-0.4669708E-05)
 number of electron    1653.9999285 magnetization 
 augmentation part     1012.9761924 magnetization 

 DIPCOR: dipole corrections for dipol
 direction  3 min pos   154,
 dipolmoment           0.000000      0.000000     -0.500119 electrons x Angstroem
 Tr[quadrupol]    -66504.440129

 energy correction for charged system         0.000000 eV
 dipol+quadrupol energy correction           -0.005401 eV
 added-field ion interaction        -18.030128 eV  (added to PSCEN)


 eigenvalues of (default mixing * dielectric matrix)
  average eigenvalue GAMMA=   0.9599
  1.6386  0.2811

  free energy =  -0.659530670669E+03  energy without entropy=  -0.659482085820E+03


--------------------------------------------------------------------------------------------------------




--------------------------------------- Iteration    194(   4)  ---------------------------------------


    POTLOK:  cpu time    0.1090: real time    0.1107
    SETDIJ:  cpu time    0.0124: real time    0.0125
    EDDIAG:  cpu time    9.8254: real time    9.8297
  RMM-DIIS:  cpu time   13.9971: real time   14.0027
    ORTHCH:  cpu time    3.2390: real time    3.2433
       DOS:  cpu time    0.0012: real time    0.0012
    CHARGE:  cpu time    2.0937: real time    2.0943
    MIXING:  cpu time    0.0036: real time    0.0036
    --------------------------------------------
      LOOP:  cpu time   29.2814: real time   29.2979

 eigenvalue-minimisations  :  5721
 total energy-change (2. order) : 0.2040068E-04  (-0.1307389E-05)
 number of electron    1653.9999285 magnetization 
 augmentation part     1012.9768421 magnetization 

 DIPCOR: dipole corrections for dipol
 direction  3 min pos   154,
 dipolmoment           0.000000      0.000000     -0.496786 electrons x Angstroem
 Tr[quadrupol]    -66504.444241

 energy correction for charged system         0.000000 eV
 dipol+quadrupol energy correction           -0.005330 eV
 added-field ion interaction        -17.909953 eV  (added to PSCEN)


 eigenvalues of (default mixing * dielectric matrix)
  average eigenvalue GAMMA=   0.9852
  2.0320  0.7348  0.1887

  free energy =  -0.659530650269E+03  energy without entropy=  -0.659482095243E+03


--------------------------------------------------------------------------------------------------------




--------------------------------------- Iteration    194(   5)  ---------------------------------------


    POTLOK:  cpu time    0.1132: real time    0.1133
    SETDIJ:  cpu time    0.0125: real time    0.0125
    EDDIAG:  cpu time    9.8318: real time    9.8351
  RMM-DIIS:  cpu time   13.6786: real time   13.6835
    ORTHCH:  cpu time    3.2463: real time    3.2499
       DOS:  cpu time    0.0011: real time    0.0011
    --------------------------------------------
      LOOP:  cpu time   26.8835: real time   26.8955

 eigenvalue-minimisations  :  5562
 total energy-change (2. order) : 0.1150969E-05  (-0.7674969E-06)
 number of electron    1653.9999285 magnetization 
 augmentation part     1012.9768421 magnetization 

 DIPCOR: dipole corrections for dipol
 direction  3 min pos   154,
 dipolmoment           0.000000      0.000000     -0.497603 electrons x Angstroem
 Tr[quadrupol]    -66504.442176

 energy correction for charged system         0.000000 eV
 dipol+quadrupol energy correction           -0.005347 eV
 added-field ion interaction        -17.939401 eV  (added to PSCEN)


  free energy =  -0.659530649118E+03  energy without entropy=  -0.659482121449E+03


--------------------------------------------------------------------------------------------------------




------------------------ aborting loop because EDIFF is reached ----------------------------------------


    CHARGE:  cpu time    2.0872: real time    2.0880
    FORLOC:  cpu time    0.0877: real time    0.0877
    FORNL :  cpu time    8.2806: real time    8.2839
    STRESS:  cpu time   24.6618: real time   24.6747
    FORCOR:  cpu time    0.1634: real time    0.1634
    FORHAR:  cpu time    0.1059: real time    0.1059
    MIXING:  cpu time    0.0038: real time    0.0038
    OFIELD:  cpu time    0.0001: real time    0.0001

  Number of pair interactions contributing to vdW energy:  899502
  Edisp (eV):  -12.64310
    FORVDW:  cpu time    0.1292: real time    0.1292

  FORCE on cell =-STRESS in cart. coord.  units (eV):
  Direction    XX          YY          ZZ          XY          YZ          ZX
  --------------------------------------------------------------------------------------
  Alpha Z  3880.85270  3880.85270  3880.85270
  Ewald  695332.59721694891.20997************ -1231.70907   -26.19275   201.49512
  Hartree749098.02757748681.01703************ -1110.39346   -19.10864   148.55521
  E(xc)   -9527.55026 -9527.39057 -9551.14613    -0.07212    -0.01353     0.20951
  Local  ************************************  2349.89957    42.17664  -344.92314
  n-local -3178.27444 -3181.88024 -3272.29450    -2.56161    -0.13290     0.28670
  augment 13624.39430 13624.10285 13693.33870    -0.13580     0.24328    -0.19183
  Kinetic 14013.96698 14008.60160 14240.26636    -5.11251     2.78066    -5.39236
  Fock        0.00000     0.00000     0.00000     0.00000     0.00000     0.00000
  vdW       -16.65730   -16.57954   -13.48065     0.14479     0.03388     0.02962
  -------------------------------------------------------------------------------------
  Total      12.16448    11.14662    -4.50843     0.05980    -0.21335     0.06884
  in kB       4.62978     4.24239    -1.71590     0.02276    -0.08120     0.02620
  external pressure =        2.39 kB  Pullay stress =        0.00 kB



--------------------------------------------------------------------------------------------------------



  FREE ENERGIE OF THE ION-ELECTRON SYSTEM (eV)
  ---------------------------------------------------
  free  energy   TOTEN  =      -672.17375240 eV

  energy  without entropy=     -672.12522473  energy(sigma->0) =     -672.14948856
 
 d Force = 0.6546909E-04[ 0.414E-04, 0.896E-04]  d Energy = 0.5485486E-04 0.106E-04
 d Force = 0.4954774E+01[ 0.495E+01, 0.495E+01]  d Ewald  = 0.4954774E+01 0.472E-06


--------------------------------------------------------------------------------------------------------


    POTLOK:  cpu time    0.1244: real time    0.1244


--------------------------------------------------------------------------------------------------------


 Conjugate gradient step on ions:
 trial-energy change:   -0.000055  1 .order   -0.000065   -0.000090   -0.000041
  (g-gl).g = 0.701E-04      g.g   = 0.744E-04  gl.gl    = 0.111E-03
 g(Force)  = 0.744E-04   g(Stress)= 0.000E+00 ortho     =-0.495E-05
 gamma     =   0.63116
 trial     =   1.25620
 opt step  =   2.33318  (harmonic =   2.33318) maximal distance =0.00413050
 next E    =  -672.173781   (d E  =  -0.00008)


--------------------------------------------------------------------------------------------------------


  
 reached required accuracy - stopping structural energy minimisation
     LOOP+:  cpu time  216.3799: real time  216.5149
    4ORBIT:  cpu time    0.0000: real time    0.0000

 total amount of memory used by VASP MPI-rank0   291975. kBytes
=======================================================================

   base      :      30000. kBytes
   nonlr-proj:      53400. kBytes
   fftplans  :       7568. kBytes
   grid      :      40325. kBytes
   one-center:       2628. kBytes
   wavefun   :     158054. kBytes
 
  
  
 General timing and accounting informations for this job:
 ========================================================
  
                  Total CPU time used (sec):    63118.031
                            User time (sec):    63003.202
                          System time (sec):      114.829
                         Elapsed time (sec):    63224.672
  
                   Maximum memory used (kb):      652124.
                   Average memory used (kb):           0.
  
                          Minor page faults:      3868241
                          Major page faults:            0
                 Voluntary context switches:        16866
