 vasp.5.4.4.18Apr17-6-g9f103f2a35 (build Jun 30 2017 19:19:18) complex          
  
 executed on         MareNostrum4 date 2022.04.12  11:03:59
 running on   48 total cores
 distrk:  each k-point on   48 cores,    1 groups
 distr:  one band on NCORES_PER_BAND=   1 cores,   48 groups


--------------------------------------------------------------------------------------------------------


 INCAR:
 POTCAR:    PAW_PBE Cu 22Jun2005                  
 POTCAR:    PAW_PBE C 08Apr2002                   
 POTCAR:    PAW_PBE N 08Apr2002                   
 POTCAR:    PAW_PBE H 15Jun2001                   

 ----------------------------------------------------------------------------- 
|                                                                             |
|           W    W    AA    RRRRR   N    N  II  N    N   GGGG   !!!           |
|           W    W   A  A   R    R  NN   N  II  NN   N  G    G  !!!           |
|           W    W  A    A  R    R  N N  N  II  N N  N  G       !!!           |
|           W WW W  AAAAAA  RRRRR   N  N N  II  N  N N  G  GGG   !            |
|           WW  WW  A    A  R   R   N   NN  II  N   NN  G    G                |
|           W    W  A    A  R    R  N    N  II  N    N   GGGG   !!!           |
|                                                                             |
|      For optimal performance we recommend to set                            |
|        NCORE= 4 - approx SQRT( number of cores)                             |
|      NCORE specifies how many cores store one orbital (NPAR=cpu/NCORE).     |
|      This setting can  greatly improve the performance of VASP for DFT.     |
|      The default,   NCORE=1            might be grossly inefficient         |
|      on modern multi-core architectures or massively parallel machines.     |
|      Do your own testing !!!!                                               |
|      Unfortunately you need to use the default for GW and RPA calculations. |
|      (for HF NCORE is supported but not extensively tested yet)             |
|                                                                             |
 ----------------------------------------------------------------------------- 

 POTCAR:    PAW_PBE Cu 22Jun2005                  
  local pseudopotential read in
  partial core-charges read in
  partial kinetic energy density read in
  atomic valenz-charges read in
  non local Contribution for L=           2  read in
    real space projection operators read in
  non local Contribution for L=           2  read in
    real space projection operators read in
  non local Contribution for L=           0  read in
    real space projection operators read in
  non local Contribution for L=           0  read in
    real space projection operators read in
  non local Contribution for L=           1  read in
    real space projection operators read in
  non local Contribution for L=           1  read in
    real space projection operators read in
    PAW grid and wavefunctions read in
 
   number of l-projection  operators is LMAX  =           6
   number of lm-projection operators is LMMAX =          18
 
 POTCAR:    PAW_PBE C 08Apr2002                   
  local pseudopotential read in
  partial core-charges read in
  partial kinetic energy density read in
  atomic valenz-charges read in
  non local Contribution for L=           0  read in
    real space projection operators read in
  non local Contribution for L=           0  read in
    real space projection operators read in
  non local Contribution for L=           1  read in
    real space projection operators read in
  non local Contribution for L=           1  read in
    real space projection operators read in
    PAW grid and wavefunctions read in
 
   number of l-projection  operators is LMAX  =           4
   number of lm-projection operators is LMMAX =           8
 
 POTCAR:    PAW_PBE N 08Apr2002                   
  local pseudopotential read in
  partial core-charges read in
  partial kinetic energy density read in
  atomic valenz-charges read in
  non local Contribution for L=           0  read in
    real space projection operators read in
  non local Contribution for L=           0  read in
    real space projection operators read in
  non local Contribution for L=           1  read in
    real space projection operators read in
  non local Contribution for L=           1  read in
    real space projection operators read in
    PAW grid and wavefunctions read in
 
   number of l-projection  operators is LMAX  =           4
   number of lm-projection operators is LMMAX =           8
 
 POTCAR:    PAW_PBE H 15Jun2001                   
  local pseudopotential read in
  atomic valenz-charges read in
  non local Contribution for L=           0  read in
    real space projection operators read in
  non local Contribution for L=           0  read in
    real space projection operators read in
  non local Contribution for L=           1  read in
    real space projection operators read in
    PAW grid and wavefunctions read in
 
   number of l-projection  operators is LMAX  =           3
   number of lm-projection operators is LMMAX =           5
 
 Optimization of the real space projectors (new method)

 maximal supplied QI-value         = 16.25
 optimisation between [QCUT,QGAM] = [ 10.73, 21.61] = [ 32.22,130.83] Ry 
 Optimized for a Real-space Cutoff    1.42 Angstroem

   l    n(q)    QCUT    max X(q) W(low)/X(q) W(high)/X(q)  e(spline) 
   2      8    10.726     4.610    0.15E-03    0.25E-03    0.14E-06
   2      8    10.726     8.522    0.25E-03    0.43E-03    0.27E-06
   0      9    10.726    51.609    0.94E-04    0.10E-03    0.12E-06
   0      9    10.726    27.747    0.85E-04    0.96E-04    0.11E-06
   1      9    10.726    20.408    0.25E-03    0.14E-03    0.12E-06
   1      9    10.726    13.425    0.22E-03    0.13E-03    0.11E-06
 Optimization of the real space projectors (new method)

 maximal supplied QI-value         = 25.13
 optimisation between [QCUT,QGAM] = [ 10.81, 21.61] = [ 32.71,130.83] Ry 
 Optimized for a Real-space Cutoff    1.23 Angstroem

   l    n(q)    QCUT    max X(q) W(low)/X(q) W(high)/X(q)  e(spline) 
   0      8    10.807   115.676    0.36E-03    0.72E-03    0.24E-06
   0      8    10.807    87.132    0.35E-03    0.71E-03    0.24E-06
   1      7    10.807     4.429    0.19E-03    0.39E-03    0.11E-06
   1      7    10.807     2.733    0.14E-03    0.28E-03    0.13E-06
 Optimization of the real space projectors (new method)

 maximal supplied QI-value         = 25.13
 optimisation between [QCUT,QGAM] = [ 10.81, 21.61] = [ 32.71,130.83] Ry 
 Optimized for a Real-space Cutoff    1.23 Angstroem

   l    n(q)    QCUT    max X(q) W(low)/X(q) W(high)/X(q)  e(spline) 
   0      8    10.807    79.467    0.34E-03    0.68E-03    0.21E-06
   0      8    10.807    66.151    0.34E-03    0.67E-03    0.21E-06
   1      7    10.807    14.030    0.45E-03    0.13E-02    0.11E-05
   1      7    10.807     9.831    0.48E-03    0.13E-02    0.11E-05
 Optimization of the real space projectors (new method)

 maximal supplied QI-value         = 34.20
 optimisation between [QCUT,QGAM] = [ 10.60, 21.55] = [ 31.48,130.03] Ry 
 Optimized for a Real-space Cutoff    1.23 Angstroem

   l    n(q)    QCUT    max X(q) W(low)/X(q) W(high)/X(q)  e(spline) 
   0      8    10.603    19.460    0.37E-03    0.59E-03    0.23E-06
   0      8    10.603    12.209    0.35E-03    0.56E-03    0.22E-06
   1      7    10.603     4.655    0.70E-04    0.28E-03    0.29E-06
  PAW_PBE Cu 22Jun2005                  :
 energy of atom  1       EATOM=-1390.9808
 kinetic energy error for atom=    0.0097 (will be added to EATOM!!)
  PAW_PBE C 08Apr2002                   :
 energy of atom  2       EATOM= -147.1560
 kinetic energy error for atom=    0.0116 (will be added to EATOM!!)
  PAW_PBE N 08Apr2002                   :
 energy of atom  3       EATOM= -264.5486
 kinetic energy error for atom=    0.0253 (will be added to EATOM!!)
  PAW_PBE H 15Jun2001                   :
 energy of atom  4       EATOM=  -12.4884
 kinetic energy error for atom=    0.0045 (will be added to EATOM!!)
 
 
 POSCAR: Cu  C  N  H                             
  positions in direct lattice
  velocities in cartesian coordinates
 exchange correlation table for  LEXCH =        8
   RHO(1)=    0.500       N(1)  =     2000
   RHO(2)=  100.500       N(2)  =     4000
 


--------------------------------------------------------------------------------------------------------


 ion  position               nearest neighbor table
   1  0.000  0.000  0.000-   2 2.52   3 2.52   4 2.52  28 2.52  10 2.52  35 2.52  70 2.52  40 2.52
                            47 2.52
   2  0.000  0.167  0.000-   3 2.52   1 2.52   8 2.52  28 2.52   5 2.52  27 2.52  39 2.52  61 2.52
                            40 2.52
   3  0.167  0.167  0.000-   2 2.52   1 2.52   8 2.52  14 2.52   4 2.52  17 2.52  38 2.52  40 2.52
                            37 2.52
   4  0.167  0.000  0.000-  10 2.52  14 2.52   1 2.52  13 2.52   3 2.52  11 2.52  47 2.52  37 2.52
                            46 2.52
   5  0.000  0.333  0.000-   6 2.52   8 2.52  32 2.52   7 2.52  27 2.52   2 2.52  62 2.52  44 2.52
                            39 2.52
   6  0.000  0.500  0.000-  12 2.52   5 2.52   7 2.52   9 2.52  32 2.52  31 2.52  43 2.52  65 2.52
                            44 2.52
   7  0.167  0.500  0.000-  18 2.52   8 2.52  21 2.52   6 2.52   5 2.52  12 2.52  42 2.52  44 2.52
                            41 2.52
   8  0.167  0.333  0.000-   7 2.52   2 2.52  18 2.52   3 2.52   5 2.52  17 2.52  39 2.52  41 2.52
                            38 2.52
   9  0.000  0.667  0.000-  10 2.52  12 2.52  36 2.52  31 2.52   6 2.52  11 2.52  66 2.52  48 2.52
                            43 2.52
  10  0.000  0.833  0.000-   4 2.52   9 2.52  11 2.52   1 2.52  36 2.52  35 2.52  47 2.52  69 2.52
                            48 2.52
  11  0.167  0.833  0.000-  22 2.52  13 2.52  12 2.52  10 2.52   4 2.52   9 2.52  46 2.52  48 2.52
                            45 2.52
  12  0.167  0.667  0.000-   6 2.52  11 2.52  22 2.52   9 2.52  21 2.52   7 2.52  43 2.52  45 2.52
                            42 2.52
  13  0.333  0.000  0.000-  15 2.52  22 2.52  11 2.52  16 2.52   4 2.52  14 2.52  46 2.52  52 2.52
                            59 2.52
  14  0.333  0.167  0.000-   4 2.52  17 2.52  15 2.52   3 2.52  13 2.52  20 2.52  37 2.52  51 2.52
                            52 2.52
  15  0.500  0.167  0.000-  13 2.52  20 2.52  14 2.52  26 2.52  16 2.52  29 2.52  50 2.52  52 2.52
                            49 2.52
  16  0.500  0.000  0.000-  26 2.52  25 2.52  13 2.52  23 2.52  15 2.52  22 2.52  59 2.52  49 2.52
                            58 2.52
  17  0.333  0.333  0.000-  14 2.52  20 2.52   8 2.52  19 2.52  18 2.52   3 2.52  38 2.52  56 2.52
                            51 2.52
  18  0.333  0.500  0.000-   7 2.52  21 2.52   8 2.52  17 2.52  24 2.52  19 2.52  41 2.52  55 2.52
                            56 2.52
  19  0.500  0.500  0.000-  30 2.52  33 2.52  20 2.52  17 2.52  24 2.52  18 2.52  54 2.52  56 2.52
                            53 2.52
  20  0.500  0.333  0.000-  19 2.52  30 2.52  15 2.52  29 2.52  17 2.52  14 2.52  51 2.52  53 2.52
                            50 2.52
  21  0.333  0.667  0.000-  18 2.52   7 2.52  24 2.52  12 2.52  23 2.52  22 2.52  42 2.52  60 2.52
                            55 2.52
  22  0.333  0.833  0.000-  11 2.52  13 2.52  12 2.52  16 2.52  21 2.52  23 2.52  45 2.52  59 2.52
                            60 2.52
  23  0.500  0.833  0.000-  34 2.52  25 2.52  24 2.52  16 2.52  21 2.52  22 2.52  58 2.52  60 2.52
                            57 2.52
  24  0.500  0.667  0.000-  23 2.52  34 2.52  33 2.52  21 2.52  18 2.52  19 2.52  55 2.52  57 2.52
                            54 2.52
  25  0.667  0.000  0.000-  23 2.52  27 2.52  34 2.52  16 2.52  28 2.52  26 2.52  58 2.52  64 2.52
                            71 2.52
  26  0.667  0.167  0.000-  16 2.52  29 2.52  27 2.52  15 2.52  25 2.52  32 2.52  49 2.52  63 2.52
                            64 2.52
  27  0.833  0.167  0.000-  25 2.52  32 2.52  26 2.52  28 2.52   5 2.52   2 2.52  62 2.52  64 2.52
                            61 2.52
  28  0.833  0.000  0.000-  35 2.52   1 2.52  25 2.52  27 2.52  34 2.52   2 2.52  71 2.52  61 2.52
                            70 2.52
  29  0.667  0.333  0.000-  31 2.52  26 2.52  20 2.52  32 2.52  30 2.52  15 2.52  50 2.52  68 2.52
                            63 2.52
  30  0.667  0.500  0.000-  19 2.52  20 2.52  33 2.52  31 2.52  29 2.52  36 2.52  53 2.52  67 2.52
                            68 2.52
  31  0.833  0.500  0.000-  36 2.52  29 2.52  30 2.52  32 2.52   9 2.52   6 2.52  66 2.52  68 2.52
                            65 2.52
  32  0.833  0.333  0.000-  27 2.52   5 2.52  29 2.52   6 2.52  31 2.52  26 2.52  63 2.52  65 2.52
                            62 2.52
  33  0.667  0.667  0.000-  19 2.52  30 2.52  35 2.52  24 2.52  36 2.52  34 2.52  54 2.52  72 2.52
                            67 2.52
  34  0.667  0.833  0.000-  23 2.52  25 2.52  24 2.52  35 2.52  28 2.52  33 2.52  57 2.52  71 2.52
                            72 2.52
  35  0.833  0.833  0.000-  28 2.52  33 2.52  34 2.52   1 2.52  36 2.52  10 2.52  70 2.52  72 2.52
                            69 2.52
  36  0.833  0.667  0.000-  31 2.52   9 2.52  33 2.52  30 2.52  10 2.52  35 2.52  67 2.52  69 2.52
                            66 2.52
  37  0.222  0.111  0.097-  51 2.52  52 2.52  38 2.52  46 2.52  40 2.52  47 2.52  14 2.52   4 2.52
                             3 2.52  76 2.54  74 2.54  75 2.54
  38  0.222  0.278  0.097-  37 2.52  51 2.52  40 2.52  56 2.52  39 2.52  41 2.52   3 2.52  17 2.52
                             8 2.52  73 2.54  76 2.54  79 2.55
  39  0.056  0.278  0.097-  40 2.52  61 2.52  62 2.52  38 2.52  41 2.52  44 2.52   2 2.52   8 2.52
                             5 2.52 100 2.54  78 2.54  73 2.54
  40  0.056  0.111  0.097-  39 2.52  61 2.52  38 2.52  70 2.52  37 2.52  47 2.52   3 2.52   1 2.52
                             2 2.52  99 2.54  73 2.54  74 2.54
  41  0.222  0.444  0.097-  55 2.52  56 2.52  42 2.52  38 2.52  44 2.52  39 2.52  18 2.52   8 2.52
                             7 2.52  78 2.54  80 2.55  79 2.55
  42  0.222  0.611  0.097-  41 2.52  55 2.52  44 2.52  60 2.52  43 2.52  45 2.52   7 2.52  21 2.52
                            12 2.52  83 2.54  77 2.54  80 2.56
  43  0.056  0.611  0.097-  44 2.52  65 2.52  66 2.52  42 2.52  45 2.52  48 2.52   6 2.52  12 2.52
                             9 2.52 104 2.54  82 2.54  77 2.54
  44  0.056  0.444  0.097-  43 2.52  65 2.52  42 2.52  62 2.52  41 2.52  39 2.52   7 2.52   5 2.52
                             6 2.52 103 2.54  77 2.54  78 2.55
  45  0.222  0.778  0.097-  59 2.52  60 2.52  46 2.52  42 2.52  48 2.52  43 2.52  22 2.52  12 2.52
                            11 2.52  82 2.54  83 2.54  84 2.54
  46  0.222  0.944  0.097-  45 2.52  59 2.52  48 2.52  52 2.52  47 2.52  37 2.52  11 2.52  13 2.52
                             4 2.52  81 2.54  75 2.54  84 2.54
  47  0.056  0.944  0.097-  48 2.52  69 2.52  70 2.52  46 2.52  37 2.52  40 2.52  10 2.52   4 2.52
                             1 2.52 108 2.54  81 2.54  74 2.54
  48  0.056  0.778  0.097-  47 2.52  69 2.52  46 2.52  66 2.52  45 2.52  43 2.52  11 2.52   9 2.52
                            10 2.52 107 2.54  81 2.54  82 2.54
  49  0.556  0.111  0.097-  63 2.52  64 2.52  50 2.52  58 2.52  52 2.52  59 2.52  26 2.52  16 2.52
                            15 2.52  88 2.54  86 2.54  87 2.54
  50  0.556  0.278  0.097-  49 2.52  63 2.52  52 2.52  68 2.52  51 2.52  53 2.52  15 2.52  29 2.52
                            20 2.52  91 2.53  85 2.54  88 2.54
  51  0.389  0.278  0.097-  37 2.52  52 2.52  38 2.52  50 2.52  56 2.52  53 2.52  14 2.52  20 2.52
                            17 2.52  76 2.54  90 2.54  85 2.54
  52  0.389  0.111  0.097-  51 2.52  37 2.52  50 2.52  46 2.52  49 2.52  59 2.52  15 2.52  13 2.52
                            14 2.52  85 2.54  75 2.54  86 2.55
  53  0.556  0.444  0.097-  67 2.52  68 2.52  54 2.52  50 2.52  56 2.52  51 2.52  30 2.52  20 2.52
                            19 2.52  90 2.54  91 2.54  92 2.54
  54  0.556  0.611  0.097-  53 2.52  67 2.52  56 2.52  72 2.52  55 2.52  57 2.52  19 2.52  33 2.52
                            24 2.52  92 2.54  95 2.56  89 2.58
  55  0.389  0.611  0.097-  41 2.52  56 2.52  42 2.52  54 2.52  60 2.52  57 2.52  18 2.52  24 2.52
                            21 2.52  80 2.55  94 2.56  89 2.58
  56  0.389  0.444  0.097-  55 2.52  41 2.52  54 2.52  38 2.52  53 2.52  51 2.52  19 2.52  17 2.52
                            18 2.52  90 2.54  79 2.54  89 2.59
  57  0.556  0.778  0.097-  71 2.52  72 2.52  58 2.52  54 2.52  60 2.52  55 2.52  34 2.52  24 2.52
                            23 2.52  96 2.54  94 2.56  95 2.56
  58  0.556  0.944  0.097-  57 2.52  71 2.52  60 2.52  64 2.52  59 2.52  49 2.52  23 2.52  25 2.52
                            16 2.52  93 2.54  96 2.54  87 2.54
  59  0.389  0.944  0.097-  45 2.52  60 2.52  46 2.52  58 2.52  52 2.52  49 2.52  22 2.52  16 2.52
                            13 2.52  84 2.54  93 2.54  86 2.55
  60  0.389  0.778  0.097-  59 2.52  45 2.52  58 2.52  42 2.52  57 2.52  55 2.52  23 2.52  21 2.52
                            22 2.52  83 2.53  93 2.54  94 2.58
  61  0.889  0.111  0.097-  39 2.52  40 2.52  62 2.52  70 2.52  64 2.52  71 2.52   2 2.52  28 2.52
                            27 2.52  98 2.54  99 2.54 100 2.55
  62  0.889  0.278  0.097-  61 2.52  39 2.52  64 2.52  44 2.52  63 2.52  65 2.52  27 2.52   5 2.52
                            32 2.52  97 2.54 100 2.54 103 2.55
  63  0.722  0.278  0.097-  64 2.52  49 2.52  50 2.52  62 2.52  65 2.52  68 2.52  26 2.52  32 2.52
                            29 2.52  88 2.54  97 2.54 102 2.54
  64  0.722  0.111  0.097-  63 2.52  49 2.52  62 2.52  58 2.52  61 2.52  71 2.52  27 2.52  25 2.52
                            26 2.52  98 2.54  87 2.54  97 2.54
  65  0.889  0.444  0.097-  43 2.52  44 2.52  66 2.52  62 2.52  68 2.52  63 2.52   6 2.52  32 2.52
                            31 2.52 102 2.54 104 2.54 103 2.55
  66  0.889  0.611  0.097-  65 2.52  43 2.52  68 2.52  48 2.52  67 2.52  69 2.52  31 2.52   9 2.52
                            36 2.52 101 2.53 107 2.54 104 2.55
  67  0.722  0.611  0.097-  68 2.52  53 2.52  54 2.52  66 2.52  69 2.52  72 2.52  30 2.52  36 2.52
                            33 2.52  92 2.53 101 2.54 106 2.54
  68  0.722  0.444  0.097-  67 2.52  53 2.52  66 2.52  50 2.52  65 2.52  63 2.52  31 2.52  29 2.52
                            30 2.52  91 2.53 101 2.54 102 2.54
  69  0.889  0.778  0.097-  47 2.52  48 2.52  70 2.52  66 2.52  72 2.52  67 2.52  10 2.52  36 2.52
                            35 2.52 106 2.54 107 2.54 108 2.54
  70  0.889  0.944  0.097-  69 2.52  47 2.52  72 2.52  40 2.52  71 2.52  61 2.52  35 2.52   1 2.52
                            28 2.52 105 2.53 108 2.54  99 2.54
  71  0.722  0.944  0.097-  57 2.52  72 2.52  58 2.52  70 2.52  61 2.52  64 2.52  34 2.52  28 2.52
                            25 2.52  96 2.53 105 2.54  98 2.54
  72  0.722  0.778  0.097-  71 2.52  57 2.52  70 2.52  54 2.52  69 2.52  67 2.52  35 2.52  33 2.52
                            34 2.52 105 2.54 106 2.54  95 2.57
  73  0.112  0.223  0.196-  78 2.52  76 2.52  74 2.52  99 2.53 100 2.53  79 2.53  38 2.54 110 2.54
                            40 2.54  39 2.54 116 2.55 111 2.55
  74  0.112  0.056  0.196-  76 2.52  73 2.52 108 2.52  75 2.52  99 2.52  81 2.53 109 2.54  37 2.54
                           112 2.54 111 2.54  40 2.54  47 2.54
  75  0.278  0.055  0.196-  85 2.52  81 2.52  84 2.52  76 2.52  86 2.52  74 2.52 112 2.54  52 2.54
                            46 2.54 122 2.54 121 2.54  37 2.54
  76  0.278  0.222  0.195-  74 2.52  73 2.52  85 2.52  75 2.52  90 2.53 125 2.53  79 2.53  51 2.54
                            37 2.54  38 2.54 111 2.55 122 2.55
  77  0.112  0.556  0.196-  83 2.52 103 2.52  78 2.52  82 2.53 104 2.53  80 2.53  42 2.54 120 2.54
                            44 2.54 115 2.54 114 2.54  43 2.54
  78  0.112  0.389  0.196- 100 2.52  73 2.52  77 2.52 103 2.52  80 2.53  79 2.53 115 2.54  41 2.54
                           113 2.54  39 2.54  44 2.55 116 2.55
  79  0.279  0.389  0.196-  80 2.51  90 2.52  78 2.53  73 2.53  76 2.53  89 2.53 125 2.54  56 2.54
                           116 2.54  41 2.55  38 2.55 126 2.55
  80  0.279  0.555  0.196- 129 2.51  79 2.51  89 2.52  78 2.53  94 2.53  77 2.53  83 2.53 115 2.53
                            55 2.55  41 2.55  42 2.56 126 2.57
  81  0.112  0.889  0.196- 107 2.52  75 2.52 108 2.52  84 2.52  82 2.53  74 2.53  46 2.54 118 2.54
                           119 2.54 112 2.54  48 2.54  47 2.54
  82  0.112  0.722  0.195-  84 2.52 104 2.52  83 2.52 107 2.53  77 2.53  81 2.53  45 2.54 119 2.54
                           117 2.54  43 2.54 120 2.54  48 2.54
  83  0.278  0.722  0.195- 129 2.51  93 2.52  82 2.52  77 2.52  84 2.53  60 2.53  80 2.53  42 2.54
                            94 2.54  45 2.54 120 2.55 130 2.55
  84  0.278  0.889  0.196-  86 2.52  75 2.52  82 2.52  93 2.52  81 2.52  83 2.53 119 2.54  59 2.54
                            45 2.54 130 2.54  46 2.54 121 2.54
  85  0.445  0.222  0.195-  75 2.52  88 2.52  86 2.52  76 2.52  91 2.53  90 2.53 128 2.53  52 2.54
                            50 2.54  51 2.54 122 2.55 123 2.55
  86  0.445  0.055  0.196-  87 2.52  84 2.52  85 2.52  93 2.52  75 2.52  88 2.52 121 2.54 123 2.54
                           124 2.54  49 2.54  59 2.55  52 2.55
  87  0.611  0.056  0.196-  86 2.52  96 2.52  88 2.52  93 2.52  98 2.53  97 2.53 134 2.54 133 2.54
                            64 2.54  58 2.54  49 2.54 124 2.55
  88  0.611  0.222  0.196-  91 2.52  85 2.52  86 2.52  87 2.52  97 2.53 102 2.53 137 2.54  63 2.54
                           134 2.54  49 2.54  50 2.54 123 2.54
  89  0.445  0.557  0.198-  94 2.50  95 2.50 127 2.51  80 2.52  92 2.53  79 2.53 126 2.54  90 2.54
                            54 2.58  55 2.58  56 2.59 132 2.62
  90  0.445  0.389  0.195- 127 2.52  79 2.52  91 2.53  76 2.53  85 2.53  92 2.53 125 2.53  53 2.54
                            89 2.54  51 2.54  56 2.54 128 2.55
  91  0.611  0.389  0.195-  88 2.52 102 2.52 138 2.52  90 2.53  85 2.53  92 2.53 101 2.53  68 2.53
                            50 2.53 128 2.54  53 2.54 137 2.55
  92  0.612  0.556  0.195- 127 2.51  95 2.52 106 2.52  89 2.53 101 2.53  90 2.53  91 2.53  67 2.53
                           141 2.54 138 2.54  54 2.54  53 2.54
  93  0.445  0.889  0.195-  83 2.52  84 2.52  86 2.52  87 2.52  96 2.52 131 2.53  94 2.54  58 2.54
                            60 2.54 130 2.54  59 2.54 124 2.55
  94  0.446  0.722  0.197-  89 2.50  95 2.50 129 2.51  96 2.52 131 2.52  80 2.53  93 2.54  83 2.54
                            57 2.56  55 2.56  60 2.58 132 2.61
  95  0.611  0.722  0.197-  94 2.50  89 2.50  92 2.52 142 2.52  96 2.53 141 2.53 106 2.53 105 2.54
                            54 2.56  57 2.56  72 2.57 132 2.60
  96  0.612  0.889  0.195-  87 2.52  94 2.52  98 2.52  93 2.52  95 2.53 105 2.53 142 2.53 131 2.53
                            71 2.53  58 2.54  57 2.54 133 2.55
  97  0.778  0.222  0.196- 102 2.52  98 2.52  88 2.53 103 2.53  87 2.53 100 2.53  62 2.54 134 2.54
                           135 2.54 140 2.54  63 2.54  64 2.54
  98  0.778  0.056  0.196-  97 2.52  96 2.52  87 2.53  99 2.53 100 2.53 105 2.53  61 2.54 133 2.54
                           135 2.54  64 2.54 136 2.54  71 2.54
  99  0.945  0.056  0.196-  74 2.52 100 2.53  73 2.53 105 2.53 108 2.53  98 2.53 136 2.53  40 2.54
                           109 2.54 110 2.54  61 2.54  70 2.54
 100  0.945  0.223  0.196-  78 2.52 103 2.52  99 2.53  73 2.53  98 2.53  97 2.53 135 2.53  39 2.54
                           110 2.54 113 2.54  62 2.54  61 2.55
 101  0.779  0.556  0.195- 138 2.52 107 2.52 104 2.52 102 2.52 106 2.53  92 2.53  66 2.53  91 2.53
                            68 2.54  67 2.54 144 2.54 139 2.55
 102  0.778  0.389  0.196-  91 2.52  97 2.52 101 2.52 104 2.53 103 2.53  88 2.53  65 2.54 137 2.54
                           139 2.54 140 2.54  63 2.54  68 2.54
 103  0.945  0.389  0.196- 100 2.52 104 2.52  77 2.52  78 2.52  97 2.53 102 2.53 140 2.53  44 2.54
                           114 2.54 113 2.54  62 2.55  65 2.55
 104  0.945  0.556  0.196- 101 2.52 103 2.52  82 2.52  77 2.53 107 2.53 102 2.53 139 2.53  43 2.54
                           117 2.54  65 2.54 114 2.55  66 2.55
 105  0.778  0.889  0.195- 142 2.52 106 2.52 108 2.52  99 2.53  96 2.53  98 2.53  70 2.53  95 2.54
                            72 2.54  71 2.54 143 2.54 136 2.55
 106  0.778  0.723  0.196- 105 2.52  92 2.52 141 2.52 108 2.53 101 2.53 107 2.53  95 2.53  69 2.54
                           143 2.54  72 2.54  67 2.54 144 2.55
 107  0.945  0.722  0.196-  81 2.52 101 2.52  82 2.53 108 2.53 104 2.53 106 2.53  48 2.54 144 2.54
                           118 2.54  66 2.54  69 2.54 117 2.54
 108  0.945  0.889  0.196- 105 2.52  81 2.52  74 2.52 106 2.53  99 2.53 107 2.53 143 2.54  47 2.54
                           118 2.54 109 2.54  70 2.54  69 2.54
 109  0.001  0.000  0.294- 143 2.52 136 2.52 111 2.52 112 2.52 110 2.52 118 2.53  74 2.54  99 2.54
                           108 2.54
 110  0.001  0.167  0.294- 116 2.52 136 2.52 113 2.52 109 2.52 111 2.53 135 2.53  73 2.54 100 2.54
                            99 2.54
 111  0.167  0.167  0.294- 125 2.51 116 2.52 109 2.52 112 2.52 110 2.53 122 2.53  74 2.54  76 2.55
                            73 2.55
 112  0.167  0.000  0.294- 122 2.52 118 2.52 109 2.52 111 2.52 121 2.52 119 2.53  75 2.54  74 2.54
                            81 2.54
 113  0.001  0.334  0.294- 115 2.51 110 2.52 114 2.52 135 2.52 116 2.52 140 2.53  78 2.54 100 2.54
                           103 2.54
 114  0.001  0.500  0.294- 115 2.52 120 2.52 139 2.52 113 2.52 140 2.53 117 2.53 103 2.54  77 2.54
                           104 2.55
 115  0.167  0.500  0.294- 113 2.51 114 2.52 129 2.52 116 2.52 120 2.53  80 2.53  78 2.54 126 2.54
                            77 2.54
 116  0.167  0.333  0.294- 126 2.51 110 2.52 111 2.52 115 2.52 113 2.52 125 2.53  79 2.54  73 2.55
                            78 2.55
 117  0.001  0.667  0.294- 144 2.52 120 2.52 119 2.52 139 2.52 114 2.53 118 2.53  82 2.54 104 2.54
                           107 2.54
 118  0.001  0.834  0.294- 144 2.52 143 2.52 112 2.52 119 2.52 109 2.53 117 2.53  81 2.54 108 2.54
                           107 2.54
 119  0.167  0.833  0.294- 117 2.52 121 2.52 130 2.52 120 2.52 118 2.52 112 2.53  84 2.54  82 2.54
                            81 2.54
 120  0.167  0.667  0.294- 129 2.51 117 2.52 114 2.52 119 2.52 130 2.53 115 2.53  82 2.54  77 2.54
                            83 2.55
 121  0.334  1.000  0.294- 122 2.52 130 2.52 119 2.52 124 2.52 123 2.52 112 2.52  86 2.54  84 2.54
                            75 2.54
 122  0.334  0.166  0.294- 125 2.51 121 2.52 112 2.52 123 2.52 128 2.52 111 2.53  75 2.54  85 2.55
                            76 2.55
 123  0.500  0.166  0.294- 128 2.51 124 2.52 122 2.52 134 2.52 121 2.52 137 2.53  86 2.54  88 2.54
                            85 2.55
 124  0.500  0.000  0.294- 131 2.51 123 2.52 121 2.52 130 2.52 134 2.53 133 2.53  86 2.54  87 2.55
                            93 2.55
 125  0.334  0.332  0.293- 122 2.51 111 2.51 126 2.52 128 2.53  76 2.53 116 2.53  90 2.53 127 2.54
                            79 2.54
 126  0.334  0.499  0.296- 116 2.51 125 2.52  89 2.54 115 2.54 127 2.54  79 2.55 129 2.56  80 2.57
                           132 2.57
 127  0.502  0.499  0.293-  89 2.51  92 2.51 128 2.51  90 2.52 138 2.52 141 2.54 125 2.54 126 2.54
                           132 2.58
 128  0.501  0.332  0.293- 123 2.51 127 2.51 137 2.52 122 2.52 125 2.53  85 2.53  91 2.54 138 2.54
                            90 2.55
 129  0.333  0.667  0.292- 120 2.51  94 2.51  80 2.51 130 2.51  83 2.51 115 2.52 131 2.55 126 2.56
                           132 2.56
 130  0.334  0.834  0.294- 129 2.51 131 2.52 121 2.52 119 2.52 124 2.52 120 2.53  93 2.54  84 2.54
                            83 2.55
 131  0.501  0.835  0.293- 124 2.51 133 2.52 130 2.52  94 2.52  93 2.53 132 2.53  96 2.53 142 2.54
                           129 2.55
 132  0.503  0.669  0.300- 148 2.40 142 2.53 131 2.53 141 2.54 129 2.56 126 2.57 127 2.58  95 2.60
                            94 2.61  89 2.62
 133  0.668  0.001  0.294- 142 2.51 131 2.52 134 2.52 135 2.52 136 2.53 124 2.53  98 2.54  87 2.54
                            96 2.55
 134  0.667  0.167  0.294- 137 2.52 133 2.52 123 2.52 124 2.53 135 2.53 140 2.53  97 2.54  87 2.54
                            88 2.54
 135  0.834  0.167  0.294- 140 2.52 133 2.52 136 2.52 113 2.52 134 2.53 110 2.53 100 2.53  97 2.54
                            98 2.54
 136  0.834  0.001  0.294- 142 2.50 110 2.52 135 2.52 109 2.52 133 2.53 143 2.53  99 2.53  98 2.54
                           105 2.55
 137  0.667  0.333  0.294- 138 2.51 128 2.52 134 2.52 140 2.52 123 2.53 139 2.53 102 2.54  88 2.54
                            91 2.55
 138  0.669  0.499  0.293- 139 2.51 137 2.51 101 2.52 127 2.52  91 2.52 144 2.53 141 2.53 128 2.54
                            92 2.54
 139  0.835  0.500  0.294- 138 2.51 114 2.52 140 2.52 117 2.52 144 2.53 137 2.53 104 2.53 102 2.54
                           101 2.55
 140  0.834  0.334  0.294- 139 2.52 135 2.52 137 2.52 113 2.53 114 2.53 134 2.53 103 2.53  97 2.54
                           102 2.54
 141  0.669  0.667  0.294- 144 2.51 143 2.52 106 2.52  95 2.53 138 2.53 127 2.54  92 2.54 132 2.54
                           142 2.56
 142  0.669  0.836  0.293- 136 2.50 133 2.51 105 2.52 143 2.52  95 2.52 132 2.53  96 2.53 131 2.54
                           141 2.56
 143  0.834  0.834  0.294- 141 2.52 142 2.52 109 2.52 118 2.52 136 2.53 144 2.53 108 2.54 106 2.54
                           105 2.54
 144  0.835  0.667  0.294- 141 2.51 117 2.52 118 2.52 139 2.53 138 2.53 143 2.53 107 2.54 101 2.54
                           106 2.55
 145  0.627  0.511  0.447- 162 1.10 161 1.10 163 1.11 146 1.50
 146  0.550  0.544  0.433- 147 1.39 151 1.43 145 1.50
 147  0.580  0.645  0.422- 154 1.09 146 1.39 148 1.42
 148  0.509  0.680  0.413- 155 1.09 147 1.42 149 1.42 132 2.40
 149  0.404  0.609  0.423- 153 1.37 150 1.41 148 1.42
 150  0.372  0.505  0.429- 156 1.09 149 1.41 151 1.41
 151  0.444  0.472  0.434- 152 1.37 150 1.41 146 1.43
 152  0.411  0.371  0.445- 158 1.02 157 1.02 151 1.37
 153  0.336  0.643  0.430- 160 1.02 159 1.02 149 1.37
 154  0.661  0.701  0.421- 147 1.09
 155  0.537  0.761  0.413- 148 1.09
 156  0.291  0.450  0.435- 150 1.09
 157  0.460  0.345  0.436- 152 1.02
 158  0.338  0.319  0.434- 152 1.02
 159  0.358  0.716  0.416- 153 1.02
 160  0.261  0.593  0.422- 153 1.02
 161  0.615  0.475  0.494- 145 1.10
 162  0.705  0.577  0.445- 145 1.10
 163  0.623  0.454  0.412- 145 1.11
 
  LATTYP: Found a hexagonal cell.
 ALAT       =    15.1479005815
 C/A-ratio  =     1.3984776241
  
  Lattice vectors:
  
 A1 = (  15.1479005814,   0.0000000000,   0.0000000000)
 A2 = (  -7.5739502907,  13.1184667176,   0.0000000000)
 A3 = (   0.0000000000,   0.0000000000,  21.1840000153)


Analysis of symmetry for initial positions (statically):
=====================================================================
 Subroutine PRICEL returns:
 Original cell was already a primitive cell.
 

 Routine SETGRP: Setting up the symmetry group for a 
 hexagonal supercell.


 Subroutine GETGRP returns: Found  1 space group operations
 (whereof  1 operations were pure point group operations)
 out of a pool of 24 trial point group operations.


The static configuration has the point symmetry C_1 .


Analysis of symmetry for dynamics (positions and initial velocities):
=====================================================================
 Subroutine PRICEL returns:
 Original cell was already a primitive cell.
 

 Routine SETGRP: Setting up the symmetry group for a 
 hexagonal supercell.


 Subroutine GETGRP returns: Found  1 space group operations
 (whereof  1 operations were pure point group operations)
 out of a pool of 24 trial point group operations.


The dynamic configuration has the point symmetry C_1 .


Analysis of constrained symmetry for selective dynamics:
=====================================================================
 Subroutine PRICEL returns:
 Original cell was already a primitive cell.
 

 Routine SETGRP: Setting up the symmetry group for a 
 hexagonal supercell.


 Subroutine GETGRP returns: Found  1 space group operations
 (whereof  1 operations were pure point group operations)
 out of a pool of 24 trial point group operations.


The constrained configuration has the point symmetry C_1 .


 Subroutine INISYM returns: Found  1 space group operations
 (whereof  1 operations are pure point group operations),
 and found     1 'primitive' translations

 
 
 KPOINTS: K-POINTS                                

Automatic generation of k-mesh.
Space group operators:
 irot       det(A)        alpha          n_x          n_y          n_z        tau_x        tau_y        tau_z
    1     1.000000     0.000001     1.000000     0.000000     0.000000     0.000000     0.000000     0.000000
 
 Subroutine IBZKPT returns following result:
 ===========================================
 
 Found      5 irreducible k-points:
 
 Following reciprocal coordinates:
            Coordinates               Weight
  0.000000  0.000000  0.000000      1.000000
  0.333333 -0.000000  0.000000      2.000000
  0.000000  0.333333  0.000000      2.000000
  0.333333  0.333333  0.000000      2.000000
 -0.333333  0.333333  0.000000      2.000000
 
 Following cartesian coordinates:
            Coordinates               Weight
  0.000000  0.000000  0.000000      1.000000
  0.022005  0.012705  0.000000      2.000000
  0.000000  0.025409  0.000000      2.000000
  0.022005  0.038114  0.000000      2.000000
 -0.022005  0.012705  0.000000      2.000000
 


--------------------------------------------------------------------------------------------------------




 Dimension of arrays:
   k-points           NKPTS =      5   k-points in BZ     NKDIM =      5   number of bands    NBANDS=   1008
   number of dos      NEDOS =    301   number of ions     NIONS =    163
   non local maximal  LDIM  =      6   non local SUM 2l+1 LMDIM =     18
   total plane-waves  NPLWV = 716800
   max r-space proj   IRMAX =   2102   max aug-charges    IRDMAX=   5131
   dimension x,y,z NGX =    80 NGY =   80 NGZ =  112
   dimension x,y,z NGXF=   160 NGYF=  160 NGZF=  224
   support grid    NGXF=   160 NGYF=  160 NGZF=  224
   ions per type =             144   7   2  10
   NGX,Y,Z   is equivalent  to a cutoff of   8.78,  8.78,  8.79 a.u.
   NGXF,Y,Z  is equivalent  to a cutoff of  17.56, 17.56, 17.58 a.u.

 SYSTEM =  x                                       
 POSCAR =  Cu  C  N  H                             

 Startparameter for this run:
   NWRITE =      0    write-flag & timer
   PREC   = normal    normal or accurate (medium, high low for compatibility)
   ISTART =      0    job   : 0-new  1-cont  2-samecut
   ICHARG =      2    charge: 1-file 2-atom 10-const
   ISPIN  =      1    spin polarized calculation?
   LNONCOLLINEAR =      F non collinear calculations
   LSORBIT =      F    spin-orbit coupling
   INIWAV =      1    electr: 0-lowe 1-rand  2-diag
   LASPH  =      F    aspherical Exc in radial PAW
   METAGGA=      F    non-selfconsistent MetaGGA calc.

 Electronic Relaxation 1
   ENCUT  =  450.0 eV  33.07 Ry    5.75 a.u.  26.20 26.20 36.64*2*pi/ulx,y,z
   ENINI  =  450.0     initial cutoff
   ENAUG  =  644.9 eV  augmentation charge cutoff
   NELM   =     50;   NELMIN=  5; NELMDL= -7     # of ELM steps 
   EDIFF  = 0.1E-04   stopping-criterion for ELM
   LREAL  =      T    real-space projection
   NLSPLINE    = F    spline interpolate recip. space projectors
   LCOMPAT=      F    compatible to vasp.4.4
   GGA_COMPAT  = T    GGA compatible to vasp.4.4-vasp.4.6
   LMAXPAW     = -100 max onsite density
   LMAXMIX     =    2 max onsite mixed and CHGCAR
   VOSKOWN=      0    Vosko Wilk Nusair interpolation
   ROPT   =   -0.00050  -0.00050  -0.00050  -0.00050
 Ionic relaxation
   EDIFFG = -.2E-01   stopping-criterion for IOM
   NSW    =    300    number of steps for IOM
   NBLOCK =      1;   KBLOCK =    300    inner block; outer block 
   IBRION =      2    ionic relax: 0-MD 1-quasi-New 2-CG
   NFREE  =      2    steps in history (QN), initial steepest desc. (CG)
   ISIF   =      2    stress and relaxation
   IWAVPR =     11    prediction:  0-non 1-charg 2-wave 3-comb
   ISYM   =      2    0-nonsym 1-usesym 2-fastsym
   LCORR  =      T    Harris-Foulkes like correction to forces

   POTIM  = 0.1500    time-step for ionic-motion
   TEIN   =    0.0    initial temperature
   TEBEG  =    0.0;   TEEND  =   0.0 temperature during run
   SMASS  =  -3.00    Nose mass-parameter (am)
   estimated Nose-frequenzy (Omega)   =  0.10E-29 period in steps =****** mass=  -0.524E-26a.u.
   SCALEE = 1.0000    scale energy and forces
   NPACO  =    256;   APACO  = 16.0  distance and # of slots for P.C.
   PSTRESS=    0.0 pullay stress

  Mass of Ions in am
   POMASS =  63.55 12.01 14.00  1.00
  Ionic Valenz
   ZVAL   =  11.00  4.00  5.00  1.00
  Atomic Wigner-Seitz radii
   RWIGS  =  -1.00 -1.00 -1.00 -1.00
  virtual crystal weights 
   VCA    =   1.00  1.00  1.00  1.00
   NELECT =    1632.0000    total number of electrons
   NUPDOWN=      -1.0000    fix difference up-down

 DOS related values:
   EMIN   =  10.00;   EMAX   =-10.00  energy-range for DOS
   EFERMI =   0.00
   ISMEAR =     0;   SIGMA  =   0.03  broadening in eV -4-tet -1-fermi 0-gaus

 Electronic relaxation 2 (details)
   IALGO  =     68    algorithm
   LDIAG  =      T    sub-space diagonalisation (order eigenvalues)
   LSUBROT=      F    optimize rotation matrix (better conditioning)
   TURBO    =      0    0=normal 1=particle mesh
   IRESTART =      0    0=no restart 2=restart with 2 vectors
   NREBOOT  =      0    no. of reboots
   NMIN     =      0    reboot dimension
   EREF     =   0.00    reference energy to select bands
   IMIX   =      4    mixing-type and parameters
     AMIX     =   0.40;   BMIX     =  1.00
     AMIX_MAG =   1.60;   BMIX_MAG =  1.00
     AMIN     =   0.10
     WC   =   100.;   INIMIX=   1;  MIXPRE=   1;  MAXMIX= -45

 Intra band minimization:
   WEIMIN = 0.0010     energy-eigenvalue tresh-hold
   EBREAK =  0.25E-08  absolut break condition
   DEPER  =   0.30     relativ break condition  

   TIME   =   0.40     timestep for ELM

  volume/ion in A,a.u.               =      25.83       174.28
  Fermi-wavevector in a.u.,A,eV,Ry     =   1.193714  2.255793 19.387673  1.424954
  Thomas-Fermi vector in A             =   2.329722
 
 Write flags
   LWAVE        =      F    write WAVECAR
   LDOWNSAMPLE  =      F    k-point downsampling of WAVECAR
   LCHARG       =      F    write CHGCAR
   LVTOT        =      F    write LOCPOT, total local potential
   LVHAR        =      F    write LOCPOT, Hartree potential only
   LELF         =      F    write electronic localiz. function (ELF)
   LORBIT       =      0    0 simple, 1 ext, 2 COOP (PROOUT), +10 PAW based schemes


 Dipole corrections
   LMONO  =      F    monopole corrections only (constant potential shift)
   LDIPOL =      T    correct potential (dipole corrections)
   IDIPOL =      3    1-x, 2-y, 3-z, 4-all directions 
   EPSILON=  1.0000000 bulk dielectric constant

 Exchange correlation treatment:
   GGA     =    PE    GGA type
   LEXCH   =     8    internal setting for exchange type
   VOSKOWN=      0    Vosko Wilk Nusair interpolation
   LHFCALC =     F    Hartree Fock is set to
   LHFONE  =     F    Hartree Fock one center treatment
   AEXX    =    0.0000 exact exchange contribution

 Linear response parameters
   LEPSILON=     F    determine dielectric tensor
   LRPA    =     F    only Hartree local field effects (RPA)
   LNABLA  =     F    use nabla operator in PAW spheres
   LVEL    =     F    velocity operator in full k-point grid
   LINTERFAST=   F  fast interpolation
   KINTER  =     0    interpolate to denser k-point grid
   CSHIFT  =0.1000    complex shift for real part using Kramers Kronig
   OMEGAMAX=  -1.0    maximum frequency
   DEG_THRESHOLD= 0.2000000E-02 threshold for treating states as degnerate
   RTIME   =   -0.100 relaxation time in fs
  (WPLASMAI=    0.000 imaginary part of plasma frequency in eV, 0.658/RTIME)
   DFIELD  = 0.0000000 0.0000000 0.0000000 field for delta impulse in time
 
 Orbital magnetization related:
   ORBITALMAG=     F  switch on orbital magnetization
   LCHIMAG   =     F  perturbation theory with respect to B field
   DQ        =  0.001000  dq finite difference perturbation B field
   LLRAUG    =     F  two centre corrections for induced B field



--------------------------------------------------------------------------------------------------------


 conjugate gradient relaxation of ions
   using selective dynamics as specified on POSCAR
 charge density and potential will be updated during run
 non-spin polarized calculation
 RMM-DIIS sequential band-by-band and
  variant of blocked Davidson during initial phase
 perform sub-space diagonalisation
    before iterative eigenvector-optimisation
 modified Broyden-mixing scheme, WC =      100.0
 initial mixing is a Kerker type mixing with AMIX =  0.4000 and BMIX =      1.0000
 Hartree-type preconditioning will be used
 using additional bands          192
 real space projection scheme for non local part
 use partial core corrections
 calculate Harris-corrections to forces 
   (improved forces if not selfconsistent)
 use gradient corrections 
 use of overlap-Matrix (Vanderbilt PP)
 Gauss-broadening in eV      SIGMA  =   0.03


--------------------------------------------------------------------------------------------------------


  energy-cutoff  :      450.00
  volume of cell :     4209.63
      direct lattice vectors                 reciprocal lattice vectors
    15.147900581  0.000000000  0.000000000     0.066015749  0.038114210  0.000000000
    -7.573950291 13.118466718  0.000000000     0.000000000  0.076228421  0.000000000
     0.000000000  0.000000000 21.184000015     0.000000000  0.000000000  0.047205438

  length of vectors
    15.147900581 15.147900581 21.184000015     0.076228421  0.076228421  0.047205438


 
 k-points in units of 2pi/SCALE and weight: K-POINTS                                
   0.00000000  0.00000000  0.00000000       0.111
   0.02200525  0.01270474  0.00000000       0.222
   0.00000000  0.02540947  0.00000000       0.222
   0.02200525  0.03811421  0.00000000       0.222
  -0.02200525  0.01270474  0.00000000       0.222
 
 k-points in reciprocal lattice and weights: K-POINTS                                
   0.00000000  0.00000000  0.00000000       0.111
   0.33333333 -0.00000000  0.00000000       0.222
   0.00000000  0.33333333  0.00000000       0.222
   0.33333333  0.33333333  0.00000000       0.222
  -0.33333333  0.33333333  0.00000000       0.222
 
 position of ions in fractional coordinates (direct lattice) 
   0.00000000  0.00000000  0.00000000
   0.00000000  0.16666667  0.00000000
   0.16666667  0.16666667  0.00000000
   0.16666667  0.00000000  0.00000000
   0.00000000  0.33333333  0.00000000
   0.00000000  0.50000000  0.00000000
   0.16666667  0.50000000  0.00000000
   0.16666667  0.33333333  0.00000000
   0.00000000  0.66666667  0.00000000
   0.00000000  0.83333333  0.00000000
   0.16666667  0.83333333  0.00000000
   0.16666667  0.66666667  0.00000000
   0.33333333  0.00000000  0.00000000
   0.33333333  0.16666667  0.00000000
   0.50000000  0.16666667  0.00000000
   0.50000000  0.00000000  0.00000000
   0.33333333  0.33333333  0.00000000
   0.33333333  0.50000000  0.00000000
   0.50000000  0.50000000  0.00000000
   0.50000000  0.33333333  0.00000000
   0.33333333  0.66666667  0.00000000
   0.33333333  0.83333333  0.00000000
   0.50000000  0.83333333  0.00000000
   0.50000000  0.66666667  0.00000000
   0.66666667  0.00000000  0.00000000
   0.66666667  0.16666667  0.00000000
   0.83333333  0.16666667  0.00000000
   0.83333333  0.00000000  0.00000000
   0.66666667  0.33333333  0.00000000
   0.66666667  0.50000000  0.00000000
   0.83333333  0.50000000  0.00000000
   0.83333333  0.33333333  0.00000000
   0.66666667  0.66666667  0.00000000
   0.66666667  0.83333333  0.00000000
   0.83333333  0.83333333  0.00000000
   0.83333333  0.66666667  0.00000000
   0.22222334  0.11111000  0.09731000
   0.22222334  0.27777666  0.09731000
   0.05555666  0.27777666  0.09731000
   0.05555666  0.11111000  0.09731000
   0.22222334  0.44444334  0.09731000
   0.22222334  0.61110999  0.09731000
   0.05555666  0.61110999  0.09731000
   0.05555666  0.44444334  0.09731000
   0.22222334  0.77777667  0.09731000
   0.22222334  0.94444333  0.09731000
   0.05555666  0.94444333  0.09731000
   0.05555666  0.77777667  0.09731000
   0.55555667  0.11111000  0.09731000
   0.55555667  0.27777666  0.09731000
   0.38889000  0.27777666  0.09731000
   0.38889000  0.11111000  0.09731000
   0.55555667  0.44444334  0.09731000
   0.55555667  0.61110999  0.09731000
   0.38889000  0.61110999  0.09731000
   0.38889000  0.44444334  0.09731000
   0.55555667  0.77777667  0.09731000
   0.55555667  0.94444333  0.09731000
   0.38889000  0.94444333  0.09731000
   0.38889000  0.77777667  0.09731000
   0.88889001  0.11111000  0.09731000
   0.88889001  0.27777666  0.09731000
   0.72222333  0.27777666  0.09731000
   0.72222333  0.11111000  0.09731000
   0.88889001  0.44444334  0.09731000
   0.88889001  0.61110999  0.09731000
   0.72222333  0.61110999  0.09731000
   0.72222333  0.44444334  0.09731000
   0.88889001  0.77777667  0.09731000
   0.88889001  0.94444333  0.09731000
   0.72222333  0.94444333  0.09731000
   0.72222333  0.77777667  0.09731000
   0.11170937  0.22251407  0.19560571
   0.11156967  0.05582160  0.19565855
   0.27807115  0.05548243  0.19562650
   0.27804084  0.22207664  0.19539783
   0.11176143  0.55562107  0.19552732
   0.11155835  0.38884575  0.19562428
   0.27860893  0.38936787  0.19600196
   0.27860649  0.55526643  0.19617949
   0.11152168  0.88900647  0.19554264
   0.11168331  0.72230846  0.19547337
   0.27835523  0.72235051  0.19515964
   0.27816952  0.88897404  0.19554125
   0.44452895  0.22190416  0.19543213
   0.44470321  0.05546693  0.19583860
   0.61127448  0.05561472  0.19569796
   0.61121164  0.22225378  0.19560080
   0.44535370  0.55673432  0.19794554
   0.44474248  0.38894797  0.19543654
   0.61142853  0.38875115  0.19522729
   0.61173912  0.55591199  0.19547266
   0.44470362  0.88883922  0.19548749
   0.44555267  0.72188754  0.19700048
   0.61070977  0.72190961  0.19691448
   0.61153054  0.88912323  0.19537155
   0.77806279  0.22244715  0.19554229
   0.77815382  0.05586717  0.19552291
   0.94492042  0.05587154  0.19562784
   0.94501301  0.22262225  0.19567422
   0.77861055  0.55588583  0.19540294
   0.77813730  0.38906224  0.19558564
   0.94498765  0.38906711  0.19572694
   0.94507561  0.55570373  0.19565982
   0.77830679  0.88901857  0.19531313
   0.77825333  0.72250423  0.19561155
   0.94506968  0.72246546  0.19550701
   0.94497733  0.88916299  0.19556278
   0.00069436  0.00038928  0.29382223
   0.00082650  0.16712648  0.29388795
   0.16737481  0.16681129  0.29409261
   0.16715699  0.00008697  0.29374989
   0.00085446  0.33359348  0.29405435
   0.00096207  0.50024102  0.29406582
   0.16686375  0.49958834  0.29380146
   0.16730718  0.33320549  0.29431287
   0.00091173  0.66695645  0.29378994
   0.00068363  0.83362685  0.29371857
   0.16726682  0.83343228  0.29358167
   0.16704749  0.66673047  0.29377498
   0.33371218  0.99990740  0.29400105
   0.33380726  0.16625547  0.29408418
   0.50039568  0.16645444  0.29420053
   0.50042169  0.00026467  0.29430148
   0.33392435  0.33203870  0.29336237
   0.33391062  0.49851183  0.29575206
   0.50203455  0.49885812  0.29270076
   0.50079217  0.33225955  0.29337099
   0.33266579  0.66696767  0.29249311
   0.33386887  0.83354547  0.29387440
   0.50098122  0.83513130  0.29333291
   0.50258263  0.66912049  0.29995043
   0.66755173  0.00080187  0.29387929
   0.66721032  0.16689963  0.29377477
   0.83409190  0.16717096  0.29361392
   0.83444045  0.00086567  0.29370238
   0.66735142  0.33312040  0.29384789
   0.66852678  0.49948033  0.29266205
   0.83458719  0.50020207  0.29379606
   0.83412366  0.33360270  0.29370029
   0.66878844  0.66689350  0.29355078
   0.66899423  0.83571663  0.29297759
   0.83437556  0.83386877  0.29371094
   0.83469606  0.66697134  0.29386221
   0.62706085  0.51096175  0.44691952
   0.55039404  0.54355130  0.43326609
   0.57980244  0.64521972  0.42179099
   0.50921472  0.67952540  0.41303557
   0.40382899  0.60932108  0.42321203
   0.37196769  0.50490218  0.42854411
   0.44369203  0.47176967  0.43449994
   0.41091952  0.37057506  0.44500990
   0.33568925  0.64331106  0.42983581
   0.66125360  0.70140426  0.42076873
   0.53655725  0.76119611  0.41328761
   0.29128579  0.44965002  0.43473700
   0.46020604  0.34494129  0.43612959
   0.33751548  0.31878395  0.43413542
   0.35816832  0.71602736  0.41627034
   0.26069983  0.59304328  0.42216112
   0.61472391  0.47547251  0.49399151
   0.70467457  0.57659616  0.44469293
   0.62307626  0.45425227  0.41237575
 
 position of ions in cartesian coordinates  (Angst):
   0.00000000  0.00000000  0.00000000
  -1.26232505  2.18641112  0.00000000
   1.26232505  2.18641112  0.00000000
   2.52465010  0.00000000  0.00000000
  -2.52465010  4.37282224  0.00000000
  -3.78697515  6.55923336  0.00000000
  -1.26232505  6.55923336  0.00000000
  -0.00000000  4.37282224  0.00000000
  -5.04930019  8.74564448  0.00000000
  -6.31162524 10.93205560  0.00000000
  -3.78697515 10.93205560  0.00000000
  -2.52465010  8.74564448  0.00000000
   5.04930019  0.00000000  0.00000000
   3.78697515  2.18641112  0.00000000
   6.31162524  2.18641112  0.00000000
   7.57395029  0.00000000  0.00000000
   2.52465010  4.37282224  0.00000000
   1.26232505  6.55923336  0.00000000
   3.78697515  6.55923336  0.00000000
   5.04930019  4.37282224  0.00000000
   0.00000000  8.74564448  0.00000000
  -1.26232505 10.93205560  0.00000000
   1.26232505 10.93205560  0.00000000
   2.52465010  8.74564448  0.00000000
  10.09860039  0.00000000  0.00000000
   8.83627534  2.18641112  0.00000000
  11.36092544  2.18641112  0.00000000
  12.62325048  0.00000000  0.00000000
   7.57395029  4.37282224  0.00000000
   6.31162524  6.55923336  0.00000000
   8.83627534  6.55923336  0.00000000
  10.09860039  4.37282224  0.00000000
   5.04930019  8.74564448  0.00000000
   3.78697515 10.93205560  0.00000000
   6.31162524 10.93205560  0.00000000
   7.57395029  8.74564448  0.00000000
   2.52467545  1.45759286  2.06141502
   1.26235048  3.64400385  2.06141502
  -1.26229977  3.64400385  2.06141502
   0.00002521  1.45759286  2.06141502
   0.00002536  5.83041510  2.06141502
  -1.26229962  8.01682609  2.06141502
  -3.78694986  8.01682609  2.06141502
  -2.52462489  5.83041510  2.06141502
  -2.52462474 10.20323734  2.06141502
  -3.78694972 12.38964833  2.06141502
  -6.31159996 12.38964833  2.06141502
  -5.04927499 10.20323734  2.06141502
   7.57397565  1.45759286  2.06141502
   6.31165067  3.64400385  2.06141502
   3.78700043  3.64400385  2.06141502
   5.04932540  1.45759286  2.06141502
   5.04932555  5.83041510  2.06141502
   3.78700057  8.01682609  2.06141502
   1.26235033  8.01682609  2.06141502
   2.52467531  5.83041510  2.06141502
   2.52467545 10.20323734  2.06141502
   1.26235048 12.38964833  2.06141502
  -1.26229977 12.38964833  2.06141502
   0.00002521 10.20323734  2.06141502
  12.62327584  1.45759286  2.06141502
  11.36095086  3.64400385  2.06141502
   8.83630062  3.64400385  2.06141502
  10.09862560  1.45759286  2.06141502
  10.09862574  5.83041510  2.06141502
   8.83630077  8.01682609  2.06141502
   6.31165052  8.01682609  2.06141502
   7.57397550  5.83041510  2.06141502
   7.57397565 10.20323734  2.06141502
   6.31165067 12.38964833  2.06141502
   3.78700043 12.38964833  2.06141502
   5.04932540 10.20323734  2.06141502
   0.00685194  2.91904345  4.14371136
   1.26725627  0.73229374  4.14483073
   3.79197294  0.72784436  4.14415184
   2.52973765  2.91330497  4.13930766
  -2.51529530  7.28889657  4.14205074
  -1.25522360  5.10106000  4.14410474
   1.27128750  5.10790949  4.15210545
   0.01474311  7.28424422  4.15586630
  -5.04397151 11.66240180  4.14237524
  -3.77896066  9.47557953  4.14090790
  -1.25454941  9.47613107  4.13426188
  -2.51936098 11.66197631  4.14234584
   5.05298919  2.91104237  4.14003426
   6.31621627  0.72764104  4.14864482
   8.83830188  0.72957992  4.14566559
   7.57523409  2.91562882  4.14360727
   2.52949560  7.30350061  4.19327842
   3.79104234  5.10240100  4.14012769
   6.31747673  5.09981908  4.13569485
   5.05611367  7.29271293  4.14089286
   0.00430210 11.66020774  4.14120700
   1.28164718  9.47005772  4.17325816
   3.78326340  9.47034717  4.17143639
   2.52922863 11.66393350  4.13875090
  10.10121422  2.91816548  4.14236790
  11.36426159  0.73289157  4.14195742
  13.89039228  0.73294888  4.14418022
  12.62883328  2.92046258  4.14516258
   7.58406359  7.29236975  4.13941589
   8.84040841  5.10390000  4.14328630
  11.36780396  5.10396391  4.14627953
  10.10703897  7.28998094  4.14485757
   5.05633143 11.66256050  4.13751332
   6.31669295  9.47814766  4.14383505
   8.84390402  9.47763905  4.14162050
   7.57994636 11.66445513  4.14280199
   0.00756970  0.00510681  6.22433004
  -1.25328781  2.19244310  6.22572228
   1.27195652  2.18830841  6.23005794
   2.53141867  0.00114095  6.22279773
  -2.51367713  4.37623498  6.22924733
  -3.77422735  6.56239518  6.22949024
  -1.25622173  6.55383303  6.22389009
   0.01067072  4.37114508  6.23472394
  -5.03768416  8.74944601  6.22364600
  -6.30349281 10.93590613  6.22213416
  -3.77863345 10.93335359  6.21923420
  -2.51936462  8.74648143  6.22332909
  -2.51821002 13.11725198  6.22811818
   3.79726849  2.18101685  6.22987917
   6.31922629  2.18362708  6.23234396
   7.57833348  0.00347202  6.23448261
   2.54340827  4.35583869  6.21458855
   1.28234115  6.53971081  6.26521169
   3.82644287  6.54425361  6.20057288
   5.06943262  4.35873590  6.21477108
  -0.01239162  8.74959320  6.19617402
  -1.25581949 10.93483856  6.22543532
   1.26357082 10.95564213  6.21396434
   2.54518634  8.77783491  6.35414997
  10.10593384  0.01051936  6.22553881
   8.84274607  2.18946730  6.22332469
  11.36859662  2.19302665  6.21991719
  12.63346437  0.01135629  6.22179128
   7.58593553  4.37002892  6.22487367
   6.34373808  6.55241603  6.19975285
   8.85373819  6.56188426  6.22377575
  10.10853200  4.37635586  6.22174700
   5.07972263  8.74862017  6.21857982
   3.80418179 10.96332084  6.20643730
   6.32335746 10.93907966  6.22197255
   7.59228517  8.74964132  6.22517710
   5.62865650  6.70303465  9.46754310
   4.22048366  7.13055962  9.17830885
   3.89592764  8.46429337  8.93522037
   2.56684236  8.91433132  8.74974557
   1.50219383  7.99335828  8.96532366
   1.81042561  6.62354242  9.07827836
   3.14784279  6.18889467  9.20444682
   3.41785103  4.86137653  9.42708981
   0.21258134  8.43925477  9.10564180
   4.70420281  9.20134840  8.91356474
   2.36245430  9.98572587  8.75508466
   1.00674128  5.89871878  9.20946860
   4.35858712  4.52510081  9.23896929
   2.69819724  4.18195658  9.19672471
   0.00234252  9.39318106  8.81827086
  -0.54262517  7.77981847  8.94306119
   5.71057148  6.23747034 10.46471618
   6.30722968  7.56405753  9.42037507
   5.99781314  5.95909327  8.73576785
 


--------------------------------------------------------------------------------------------------------


 k-point  1 :   0.0000 0.0000 0.0000  plane waves:   91267
 k-point  2 :   0.3333-0.0000 0.0000  plane waves:   91252
 k-point  3 :   0.0000 0.3333 0.0000  plane waves:   91252
 k-point  4 :   0.3333 0.3333 0.0000  plane waves:   91296
 k-point  5 :  -0.3333 0.3333 0.0000  plane waves:   91252

 maximum and minimum number of plane-waves per node :     91296    91252

 maximum number of plane-waves:     91296
 maximum index in each direction: 
   IXMAX=   26   IYMAX=   26   IZMAX=   36
   IXMIN=  -26   IYMIN=  -26   IZMIN=  -36


 serial   3D FFT for wavefunctions
 parallel 3D FFT for charge:
    minimum data exchange during FFTs selected (reduces bandwidth)


 total amount of memory used by VASP MPI-rank0   289920. kBytes
=======================================================================

   base      :      30000. kBytes
   nonlr-proj:      52677. kBytes
   fftplans  :       7568. kBytes
   grid      :      39168. kBytes
   one-center:       2534. kBytes
   wavefun   :     157973. kBytes
 
     INWAV:  cpu time    0.0000: real time    0.0003
 Broyden mixing: mesh for mixing (old mesh)
   NGX = 53   NGY = 53   NGZ = 73
  (NGX  =160   NGY  =160   NGZ  =224)
  gives a total of 205057 points

 initial charge density was supplied:
 charge density of overlapping atoms calculated
 number of electron    1632.0000000 magnetization 
 keeping initial charge density in first step


--------------------------------------------------------------------------------------------------------


 Maximum index for non-local projection operator         2014
 Maximum index for augmentation-charges          322 (set IRDMAX)


--------------------------------------------------------------------------------------------------------


 First call to EWALD:  gamma=   0.110
 Maximum number of real-space cells 3x 3x 2
 Maximum number of reciprocal cells 3x 3x 3

    FEWALD:  cpu time    0.0060: real time    0.0060


--------------------------------------- Iteration      1(   1)  ---------------------------------------


    POTLOK:  cpu time    0.1200: real time    0.1365
    SETDIJ:  cpu time    0.0127: real time    0.0184
     EDDAV:  cpu time   50.2762: real time   50.3423
       DOS:  cpu time    0.0018: real time    0.0032
    --------------------------------------------
      LOOP:  cpu time   50.4108: real time   50.5005

 eigenvalue-minimisations  : 10080
 total energy-change (2. order) : 0.1567189E+05  (-0.6362168E+05)
 number of electron    1632.0000000 magnetization 
 augmentation part     1632.0000000 magnetization 

 DIPCOR: dipole corrections for dipol
 direction  3 min pos   149,
 dipolmoment           0.000000      0.000000     -0.002689 electrons x Angstroem
 Tr[quadrupol]    -65194.514343

 energy correction for charged system         0.000000 eV
 dipol+quadrupol energy correction           -0.000000 eV
 added-field ion interaction         -0.022510 eV  (added to PSCEN)


 Free energy of the ion-electron system (eV)
  ---------------------------------------------------
  alpha Z        PSCENC =      3793.44150433
  Ewald energy   TEWEN  =    600143.60284513
  -Hartree energ DENC   =   -795442.90379696
  -exchange      EXHF   =         0.00000000
  -V(xc)+E(xc)   XCENC  =      6726.12552493
  PAW double counting   =    178052.61908472  -193300.29591510
  entropy T*S    EENTRO =        -0.02226115
  eigenvalues    EBANDS =     13715.58187599
  atomic energy  EATOM  =    201983.73742748
  Solvation  Ediel_sol  =         0.00000000
  ---------------------------------------------------
  free energy    TOTEN  =     15671.88628937 eV

  energy without entropy =    15671.90855051  energy(sigma->0) =    15671.89741994


--------------------------------------------------------------------------------------------------------




--------------------------------------- Iteration      1(   2)  ---------------------------------------


     EDDAV:  cpu time   50.4103: real time   50.4249
       DOS:  cpu time    0.0011: real time    0.0011
    --------------------------------------------
      LOOP:  cpu time   50.4115: real time   50.4260

 eigenvalue-minimisations  : 10080
 total energy-change (2. order) :-0.1379386E+05  (-0.1325538E+05)
 number of electron    1632.0000000 magnetization 
 augmentation part     1632.0000000 magnetization 

 DIPCOR: dipole corrections for dipol
 direction  3 min pos   149,
 dipolmoment           0.000000      0.000000     -0.002689 electrons x Angstroem
 Tr[quadrupol]    -65194.514343

 energy correction for charged system         0.000000 eV
 dipol+quadrupol energy correction           -0.000000 eV
 added-field ion interaction         -0.022510 eV  (added to PSCEN)


 Free energy of the ion-electron system (eV)
  ---------------------------------------------------
  alpha Z        PSCENC =      3793.44150433
  Ewald energy   TEWEN  =    600143.60284513
  -Hartree energ DENC   =   -795442.90379696
  -exchange      EXHF   =         0.00000000
  -V(xc)+E(xc)   XCENC  =      6726.12552493
  PAW double counting   =    178052.61908472  -193300.29591510
  entropy T*S    EENTRO =        -0.02879602
  eigenvalues    EBANDS =       -78.27121995
  atomic energy  EATOM  =    201983.73742748
  Solvation  Ediel_sol  =         0.00000000
  ---------------------------------------------------
  free energy    TOTEN  =      1878.02665855 eV

  energy without entropy =     1878.05545457  energy(sigma->0) =     1878.04105656


--------------------------------------------------------------------------------------------------------




--------------------------------------- Iteration      1(   3)  ---------------------------------------


     EDDAV:  cpu time   55.3704: real time   55.3828
       DOS:  cpu time    0.0011: real time    0.0011
    --------------------------------------------
      LOOP:  cpu time   55.3715: real time   55.3839

 eigenvalue-minimisations  : 11280
 total energy-change (2. order) :-0.2388602E+04  (-0.2171852E+04)
 number of electron    1632.0000000 magnetization 
 augmentation part     1632.0000000 magnetization 

 DIPCOR: dipole corrections for dipol
 direction  3 min pos   149,
 dipolmoment           0.000000      0.000000     -0.002689 electrons x Angstroem
 Tr[quadrupol]    -65194.514343

 energy correction for charged system         0.000000 eV
 dipol+quadrupol energy correction           -0.000000 eV
 added-field ion interaction         -0.022510 eV  (added to PSCEN)


 Free energy of the ion-electron system (eV)
  ---------------------------------------------------
  alpha Z        PSCENC =      3793.44150433
  Ewald energy   TEWEN  =    600143.60284513
  -Hartree energ DENC   =   -795442.90379696
  -exchange      EXHF   =         0.00000000
  -V(xc)+E(xc)   XCENC  =      6726.12552493
  PAW double counting   =    178052.61908472  -193300.29591510
  entropy T*S    EENTRO =        -0.03261972
  eigenvalues    EBANDS =     -2466.86979960
  atomic energy  EATOM  =    201983.73742748
  Solvation  Ediel_sol  =         0.00000000
  ---------------------------------------------------
  free energy    TOTEN  =      -510.57574480 eV

  energy without entropy =     -510.54312508  energy(sigma->0) =     -510.55943494


--------------------------------------------------------------------------------------------------------




--------------------------------------- Iteration      1(   4)  ---------------------------------------


     EDDAV:  cpu time   83.8606: real time   83.8781
       DOS:  cpu time    0.0011: real time    0.0011
    --------------------------------------------
      LOOP:  cpu time   83.8617: real time   83.8792

 eigenvalue-minimisations  : 17328
 total energy-change (2. order) :-0.2340362E+03  (-0.2246430E+03)
 number of electron    1632.0000000 magnetization 
 augmentation part     1632.0000000 magnetization 

 DIPCOR: dipole corrections for dipol
 direction  3 min pos   149,
 dipolmoment           0.000000      0.000000     -0.002689 electrons x Angstroem
 Tr[quadrupol]    -65194.514343

 energy correction for charged system         0.000000 eV
 dipol+quadrupol energy correction           -0.000000 eV
 added-field ion interaction         -0.022510 eV  (added to PSCEN)


 Free energy of the ion-electron system (eV)
  ---------------------------------------------------
  alpha Z        PSCENC =      3793.44150433
  Ewald energy   TEWEN  =    600143.60284513
  -Hartree energ DENC   =   -795442.90379696
  -exchange      EXHF   =         0.00000000
  -V(xc)+E(xc)   XCENC  =      6726.12552493
  PAW double counting   =    178052.61908472  -193300.29591510
  entropy T*S    EENTRO =        -0.05095750
  eigenvalues    EBANDS =     -2700.88764395
  atomic energy  EATOM  =    201983.73742748
  Solvation  Ediel_sol  =         0.00000000
  ---------------------------------------------------
  free energy    TOTEN  =      -744.61192693 eV

  energy without entropy =     -744.56096943  energy(sigma->0) =     -744.58644818


--------------------------------------------------------------------------------------------------------




--------------------------------------- Iteration      1(   5)  ---------------------------------------


     EDDAV:  cpu time   72.0716: real time   72.0888
       DOS:  cpu time    0.0012: real time    0.0012
    --------------------------------------------
      LOOP:  cpu time   72.0727: real time   72.0900

 eigenvalue-minimisations  : 15456
 total energy-change (2. order) :-0.1094770E+02  (-0.1035606E+02)
 number of electron    1632.0000000 magnetization 
 augmentation part     1632.0000000 magnetization 

 DIPCOR: dipole corrections for dipol
 direction  3 min pos   149,
 dipolmoment           0.000000      0.000000     -0.002689 electrons x Angstroem
 Tr[quadrupol]    -65194.514343

 energy correction for charged system         0.000000 eV
 dipol+quadrupol energy correction           -0.000000 eV
 added-field ion interaction         -0.022510 eV  (added to PSCEN)


 Free energy of the ion-electron system (eV)
  ---------------------------------------------------
  alpha Z        PSCENC =      3793.44150433
  Ewald energy   TEWEN  =    600143.60284513
  -Hartree energ DENC   =   -795442.90379696
  -exchange      EXHF   =         0.00000000
  -V(xc)+E(xc)   XCENC  =      6726.12552493
  PAW double counting   =    178052.61908472  -193300.29591510
  entropy T*S    EENTRO =        -0.05810442
  eigenvalues    EBANDS =     -2711.82819405
  atomic energy  EATOM  =    201983.73742748
  Solvation  Ediel_sol  =         0.00000000
  ---------------------------------------------------
  free energy    TOTEN  =      -755.55962395 eV

  energy without entropy =     -755.50151953  energy(sigma->0) =     -755.53057174


--------------------------------------------------------------------------------------------------------




--------------------------------------- Iteration      1(   6)  ---------------------------------------


     EDDAV:  cpu time   71.8779: real time   72.0143
       DOS:  cpu time    0.0011: real time    0.0011
    --------------------------------------------
      LOOP:  cpu time   71.8790: real time   72.0155

 eigenvalue-minimisations  : 15408
 total energy-change (2. order) :-0.2994204E+00  (-0.2986114E+00)
 number of electron    1632.0000000 magnetization 
 augmentation part     1632.0000000 magnetization 

 DIPCOR: dipole corrections for dipol
 direction  3 min pos   149,
 dipolmoment           0.000000      0.000000     -0.002689 electrons x Angstroem
 Tr[quadrupol]    -65194.514343

 energy correction for charged system         0.000000 eV
 dipol+quadrupol energy correction           -0.000000 eV
 added-field ion interaction         -0.022510 eV  (added to PSCEN)


 Free energy of the ion-electron system (eV)
  ---------------------------------------------------
  alpha Z        PSCENC =      3793.44150433
  Ewald energy   TEWEN  =    600143.60284513
  -Hartree energ DENC   =   -795442.90379696
  -exchange      EXHF   =         0.00000000
  -V(xc)+E(xc)   XCENC  =      6726.12552493
  PAW double counting   =    178052.61908472  -193300.29591510
  entropy T*S    EENTRO =        -0.05827144
  eigenvalues    EBANDS =     -2712.12744746
  atomic energy  EATOM  =    201983.73742748
  Solvation  Ediel_sol  =         0.00000000
  ---------------------------------------------------
  free energy    TOTEN  =      -755.85904438 eV

  energy without entropy =     -755.80077294  energy(sigma->0) =     -755.82990866


--------------------------------------------------------------------------------------------------------




--------------------------------------- Iteration      1(   7)  ---------------------------------------


     EDDAV:  cpu time   72.3821: real time   72.5092
       DOS:  cpu time    0.0011: real time    0.0011
    CHARGE:  cpu time    2.0718: real time    2.0764
    MIXING:  cpu time    0.0036: real time    0.0043
    --------------------------------------------
      LOOP:  cpu time   74.4587: real time   74.5910

 eigenvalue-minimisations  : 15552
 total energy-change (2. order) :-0.7135261E-02  (-0.7132786E-02)
 number of electron    1631.9999378 magnetization 
 augmentation part      935.8017515 magnetization 

 DIPCOR: dipole corrections for dipol
 direction  3 min pos   149,
 dipolmoment           0.000000      0.000000     -0.002689 electrons x Angstroem
 Tr[quadrupol]    -65194.514343

 energy correction for charged system         0.000000 eV
 dipol+quadrupol energy correction           -0.000000 eV
 added-field ion interaction         -0.022510 eV  (added to PSCEN)


 Broyden mixing:
  rms(total) = 0.94173E+01    rms(broyden)= 0.94167E+01
  rms(prec ) = 0.10092E+02
  weight for this iteration     100.00

 Free energy of the ion-electron system (eV)
  ---------------------------------------------------
  alpha Z        PSCENC =      3793.44150433
  Ewald energy   TEWEN  =    600143.60284513
  -Hartree energ DENC   =   -795442.90379696
  -exchange      EXHF   =         0.00000000
  -V(xc)+E(xc)   XCENC  =      6726.12552493
  PAW double counting   =    178052.61908472  -193300.29591510
  entropy T*S    EENTRO =        -0.05827997
  eigenvalues    EBANDS =     -2712.13457419
  atomic energy  EATOM  =    201983.73742748
  Solvation  Ediel_sol  =         0.00000000
  ---------------------------------------------------
  free energy    TOTEN  =      -755.86617964 eV

  energy without entropy =     -755.80789967  energy(sigma->0) =     -755.83703966


--------------------------------------------------------------------------------------------------------




--------------------------------------- Iteration      1(   8)  ---------------------------------------


    POTLOK:  cpu time    0.1077: real time    0.1084
    SETDIJ:  cpu time    0.0123: real time    0.0123
    EDDIAG:  cpu time   10.0099: real time   10.0132
  RMM-DIIS:  cpu time   23.9045: real time   23.9095
    ORTHCH:  cpu time    3.2522: real time    3.2527
       DOS:  cpu time    0.0011: real time    0.0011
    CHARGE:  cpu time    2.0808: real time    2.0812
    MIXING:  cpu time    0.0040: real time    0.0093
    --------------------------------------------
      LOOP:  cpu time   39.3726: real time   39.3877

 eigenvalue-minimisations  : 10125
 total energy-change (2. order) : 0.5189060E+02  (-0.1544691E+03)
 number of electron    1631.9999291 magnetization 
 augmentation part     1061.0792592 magnetization 

 DIPCOR: dipole corrections for dipol
 direction  3 min pos   155,
 dipolmoment           0.000000      0.000000      2.251486 electrons x Angstroem
 Tr[quadrupol]    -65185.936885

 energy correction for charged system         0.000000 eV
 dipol+quadrupol energy correction           -0.109471 eV
 added-field ion interaction        108.900930 eV  (added to PSCEN)


 Broyden mixing:
  rms(total) = 0.55520E+01    rms(broyden)= 0.55505E+01
  rms(prec ) = 0.62705E+01
  weight for this iteration     100.00

 eigenvalues of (default mixing * dielectric matrix)
  average eigenvalue GAMMA=   0.6351
  0.6351

 Free energy of the ion-electron system (eV)
  ---------------------------------------------------
  alpha Z        PSCENC =      3902.25547442
  Ewald energy   TEWEN  =    600143.60284513
  -Hartree energ DENC   =   -791040.71889525
  -exchange      EXHF   =         0.00000000
  -V(xc)+E(xc)   XCENC  =      6533.17459989
  PAW double counting   =    181360.95459511  -195804.61891609
  entropy T*S    EENTRO =        -0.01126853
  eigenvalues    EBANDS =     -7782.35143891
  atomic energy  EATOM  =    201983.73742748
  Solvation  Ediel_sol  =         0.00000000
  ---------------------------------------------------
  free energy    TOTEN  =      -703.97557676 eV

  energy without entropy =     -703.96430824  energy(sigma->0) =     -703.96994250


--------------------------------------------------------------------------------------------------------




--------------------------------------- Iteration      1(   9)  ---------------------------------------


    POTLOK:  cpu time    0.1063: real time    0.1071
    SETDIJ:  cpu time    0.0123: real time    0.0123
    EDDIAG:  cpu time    9.8763: real time    9.8780
  RMM-DIIS:  cpu time   22.7324: real time   24.3623
    ORTHCH:  cpu time    4.5679: real time    4.6433
       DOS:  cpu time    0.0013: real time    0.0013
    CHARGE:  cpu time    2.0649: real time    2.0652
    MIXING:  cpu time    0.0033: real time    0.0037
    --------------------------------------------
      LOOP:  cpu time   39.3647: real time   41.0733

 eigenvalue-minimisations  : 10159
 total energy-change (2. order) : 0.5580483E+02  (-0.2844950E+02)
 number of electron    1631.9999363 magnetization 
 augmentation part     1007.5943853 magnetization 

 DIPCOR: dipole corrections for dipol
 direction  3 min pos   155,
 dipolmoment           0.000000      0.000000     -3.229849 electrons x Angstroem
 Tr[quadrupol]    -65198.200609

 energy correction for charged system         0.000000 eV
 dipol+quadrupol energy correction           -0.225281 eV
 added-field ion interaction       -156.222826 eV  (added to PSCEN)


 Broyden mixing:
  rms(total) = 0.22894E+01    rms(broyden)= 0.22884E+01
  rms(prec ) = 0.42418E+01
  weight for this iteration     100.00

 eigenvalues of (default mixing * dielectric matrix)
  average eigenvalue GAMMA=   0.4969
  0.6722  0.3216

 Free energy of the ion-electron system (eV)
  ---------------------------------------------------
  alpha Z        PSCENC =      3637.01590813
  Ewald energy   TEWEN  =    600143.60284513
  -Hartree energ DENC   =   -793154.51387792
  -exchange      EXHF   =         0.00000000
  -V(xc)+E(xc)   XCENC  =      6599.43303252
  PAW double counting   =    185655.17446826  -200803.33724727
  entropy T*S    EENTRO =        -0.01683578
  eigenvalues    EBANDS =     -4709.26647023
  atomic energy  EATOM  =    201983.73742748
  Solvation  Ediel_sol  =         0.00000000
  ---------------------------------------------------
  free energy    TOTEN  =      -648.17074970 eV

  energy without entropy =     -648.15391392  energy(sigma->0) =     -648.16233181


--------------------------------------------------------------------------------------------------------




--------------------------------------- Iteration      1(  10)  ---------------------------------------


    POTLOK:  cpu time    0.1103: real time    0.1109
    SETDIJ:  cpu time    0.0122: real time    0.0122
    EDDIAG:  cpu time    9.8571: real time    9.8591
  RMM-DIIS:  cpu time   24.2067: real time   24.2117
    ORTHCH:  cpu time    3.2428: real time    3.2436
       DOS:  cpu time    0.0011: real time    0.0011
    CHARGE:  cpu time    2.0645: real time    2.0650
    MIXING:  cpu time    0.0033: real time    0.0033
    --------------------------------------------
      LOOP:  cpu time   39.4979: real time   39.5070

 eigenvalue-minimisations  : 10247
 total energy-change (2. order) : 0.2390971E+02  (-0.1039602E+01)
 number of electron    1631.9999331 magnetization 
 augmentation part     1011.4034798 magnetization 

 DIPCOR: dipole corrections for dipol
 direction  3 min pos   159,
 dipolmoment           0.000000      0.000000      0.127632 electrons x Angstroem
 Tr[quadrupol]    -65204.844278

 energy correction for charged system         0.000000 eV
 dipol+quadrupol energy correction           -0.000352 eV
 added-field ion interaction          9.576602 eV  (added to PSCEN)


 Broyden mixing:
  rms(total) = 0.11471E+01    rms(broyden)= 0.11468E+01
  rms(prec ) = 0.14113E+01
  weight for this iteration     100.00

 eigenvalues of (default mixing * dielectric matrix)
  average eigenvalue GAMMA=   0.7733
  1.5436  0.6050  0.1715

 Free energy of the ion-electron system (eV)
  ---------------------------------------------------
  alpha Z        PSCENC =      3803.04026529
  Ewald energy   TEWEN  =    600143.60284513
  -Hartree energ DENC   =   -793195.82494976
  -exchange      EXHF   =         0.00000000
  -V(xc)+E(xc)   XCENC  =      6598.19738010
  PAW double counting   =    186504.11510382  -201709.59010996
  entropy T*S    EENTRO =        -0.01919039
  eigenvalues    EBANDS =     -4751.51980741
  atomic energy  EATOM  =    201983.73742748
  Solvation  Ediel_sol  =         0.00000000
  ---------------------------------------------------
  free energy    TOTEN  =      -624.26103571 eV

  energy without entropy =     -624.24184532  energy(sigma->0) =     -624.25144052


--------------------------------------------------------------------------------------------------------




--------------------------------------- Iteration      1(  11)  ---------------------------------------


    POTLOK:  cpu time    0.1071: real time    0.1073
    SETDIJ:  cpu time    0.0123: real time    0.0123
    EDDIAG:  cpu time    9.9689: real time    9.9734
  RMM-DIIS:  cpu time   24.2385: real time   24.2439
    ORTHCH:  cpu time    3.2529: real time    3.2534
       DOS:  cpu time    0.0011: real time    0.0011
    CHARGE:  cpu time    2.0062: real time    2.0842
    MIXING:  cpu time    0.0036: real time    0.0036
    --------------------------------------------
      LOOP:  cpu time   39.5907: real time   39.6794

 eigenvalue-minimisations  : 10256
 total energy-change (2. order) : 0.2634638E+01  (-0.6612236E+00)
 number of electron    1631.9999336 magnetization 
 augmentation part     1009.6654054 magnetization 

 DIPCOR: dipole corrections for dipol
 direction  3 min pos   159,
 dipolmoment           0.000000      0.000000      0.009055 electrons x Angstroem
 Tr[quadrupol]    -65208.792521

 energy correction for charged system         0.000000 eV
 dipol+quadrupol energy correction           -0.000002 eV
 added-field ion interaction          0.679428 eV  (added to PSCEN)


 Broyden mixing:
  rms(total) = 0.64148E+00    rms(broyden)= 0.64144E+00
  rms(prec ) = 0.77871E+00
  weight for this iteration     100.00

 eigenvalues of (default mixing * dielectric matrix)
  average eigenvalue GAMMA=   0.7831
  1.7967  0.5676  0.5676  0.2005

 Free energy of the ion-electron system (eV)
  ---------------------------------------------------
  alpha Z        PSCENC =      3794.14344125
  Ewald energy   TEWEN  =    600143.60284513
  -Hartree energ DENC   =   -793271.14403911
  -exchange      EXHF   =         0.00000000
  -V(xc)+E(xc)   XCENC  =      6594.41648848
  PAW double counting   =    189860.88632042  -205252.60385341
  entropy T*S    EENTRO =        -0.03469079
  eigenvalues    EBANDS =     -4474.63033763
  atomic energy  EATOM  =    201983.73742748
  Solvation  Ediel_sol  =         0.00000000
  ---------------------------------------------------
  free energy    TOTEN  =      -621.62639819 eV

  energy without entropy =     -621.59170740  energy(sigma->0) =     -621.60905280


--------------------------------------------------------------------------------------------------------




--------------------------------------- Iteration      1(  12)  ---------------------------------------


    POTLOK:  cpu time    0.1077: real time    0.1085
    SETDIJ:  cpu time    0.0122: real time    0.0122
    EDDIAG:  cpu time    9.8714: real time    9.8731
  RMM-DIIS:  cpu time   23.9689: real time   24.1864
    ORTHCH:  cpu time    3.2370: real time    3.2375
       DOS:  cpu time    0.0011: real time    0.0011
    CHARGE:  cpu time    2.0630: real time    2.0633
    MIXING:  cpu time    0.0038: real time    0.0038
    --------------------------------------------
[...]
    --------------------------------------------
      LOOP:  cpu time   34.5677: real time   34.8493

 eigenvalue-minimisations  :  8135
 total energy-change (2. order) :-0.3270764E-04  (-0.5284045E-04)
 number of electron    1631.9999246 magnetization 
 augmentation part     1011.4515518 magnetization 

 DIPCOR: dipole corrections for dipol
 direction  3 min pos   153,
 dipolmoment           0.000000      0.000000     -0.580059 electrons x Angstroem
 Tr[quadrupol]    -65182.744296

 energy correction for charged system         0.000000 eV
 dipol+quadrupol energy correction           -0.007266 eV
 added-field ion interaction        -20.391102 eV  (added to PSCEN)


 eigenvalues of (default mixing * dielectric matrix)
  average eigenvalue GAMMA=   1.8883
  1.8883

  free energy =  -0.620622163973E+03  energy without entropy=  -0.620573063935E+03


--------------------------------------------------------------------------------------------------------




--------------------------------------- Iteration    255(   3)  ---------------------------------------


    POTLOK:  cpu time    0.1097: real time    0.1104
    SETDIJ:  cpu time    0.0122: real time    0.0122
    EDDIAG:  cpu time    9.7526: real time    9.8098
  RMM-DIIS:  cpu time   22.3519: real time   22.6035
    ORTHCH:  cpu time    3.2236: real time    3.2408
       DOS:  cpu time    0.0012: real time    0.0012
    CHARGE:  cpu time    2.2472: real time    2.2622
    MIXING:  cpu time    0.0154: real time    0.0154
    --------------------------------------------
      LOOP:  cpu time   37.7138: real time   38.0555

 eigenvalue-minimisations  :  9515
 total energy-change (2. order) :-0.7975235E-04  (-0.1495461E-04)
 number of electron    1631.9999246 magnetization 
 augmentation part     1011.4484828 magnetization 

 DIPCOR: dipole corrections for dipol
 direction  3 min pos   153,
 dipolmoment           0.000000      0.000000     -0.585405 electrons x Angstroem
 Tr[quadrupol]    -65182.739857

 energy correction for charged system         0.000000 eV
 dipol+quadrupol energy correction           -0.007401 eV
 added-field ion interaction        -20.579024 eV  (added to PSCEN)


 eigenvalues of (default mixing * dielectric matrix)
  average eigenvalue GAMMA=   1.2184
  2.1786  0.2581

  free energy =  -0.620622243725E+03  energy without entropy=  -0.620573067833E+03


--------------------------------------------------------------------------------------------------------




--------------------------------------- Iteration    255(   4)  ---------------------------------------


    POTLOK:  cpu time    0.1969: real time    0.1984
    SETDIJ:  cpu time    0.0292: real time    0.0292
    EDDIAG:  cpu time   14.1246: real time   14.1917
  RMM-DIIS:  cpu time   14.6573: real time   14.8079
    ORTHCH:  cpu time    3.1937: real time    3.2082
       DOS:  cpu time    0.0011: real time    0.0011
    CHARGE:  cpu time    2.0673: real time    2.0882
    MIXING:  cpu time    0.0037: real time    0.0037
    --------------------------------------------
      LOOP:  cpu time   34.2737: real time   34.5283

 eigenvalue-minimisations  :  6108
 total energy-change (2. order) : 0.7591565E-04  (-0.2674657E-05)
 number of electron    1631.9999246 magnetization 
 augmentation part     1011.4496846 magnetization 

 DIPCOR: dipole corrections for dipol
 direction  3 min pos   153,
 dipolmoment           0.000000      0.000000     -0.579687 electrons x Angstroem
 Tr[quadrupol]    -65182.745948

 energy correction for charged system         0.000000 eV
 dipol+quadrupol energy correction           -0.007257 eV
 added-field ion interaction        -20.378014 eV  (added to PSCEN)


 eigenvalues of (default mixing * dielectric matrix)
  average eigenvalue GAMMA=   1.0697
  2.2981  0.7220  0.1890

  free energy =  -0.620622167810E+03  energy without entropy=  -0.620573027315E+03


--------------------------------------------------------------------------------------------------------




--------------------------------------- Iteration    255(   5)  ---------------------------------------


    POTLOK:  cpu time    0.1087: real time    0.1095
    SETDIJ:  cpu time    0.0124: real time    0.0124
    EDDIAG:  cpu time    9.7453: real time    9.8476
  RMM-DIIS:  cpu time   13.6944: real time   13.8360
    ORTHCH:  cpu time    3.2027: real time    3.2149
       DOS:  cpu time    0.0011: real time    0.0011
    --------------------------------------------
      LOOP:  cpu time   26.7645: real time   27.0214

 eigenvalue-minimisations  :  5669
 total energy-change (2. order) : 0.1751323E-05  (-0.1121878E-05)
 number of electron    1631.9999246 magnetization 
 augmentation part     1011.4496846 magnetization 

 DIPCOR: dipole corrections for dipol
 direction  3 min pos   153,
 dipolmoment           0.000000      0.000000     -0.580721 electrons x Angstroem
 Tr[quadrupol]    -65182.743473

 energy correction for charged system         0.000000 eV
 dipol+quadrupol energy correction           -0.007283 eV
 added-field ion interaction        -20.414371 eV  (added to PSCEN)


  free energy =  -0.620622166058E+03  energy without entropy=  -0.620573069028E+03


--------------------------------------------------------------------------------------------------------




------------------------ aborting loop because EDIFF is reached ----------------------------------------


    CHARGE:  cpu time    2.0586: real time    2.0768
    FORLOC:  cpu time    0.0831: real time    0.0861
    FORNL :  cpu time    8.1889: real time    8.2538
    STRESS:  cpu time   24.3639: real time   24.5615
    FORCOR:  cpu time    0.1575: real time    0.1606
    FORHAR:  cpu time    0.1009: real time    0.1009
    MIXING:  cpu time    0.0038: real time    0.0038
    OFIELD:  cpu time    0.0001: real time    0.0001

  Number of pair interactions contributing to vdW energy:  835422
  Edisp (eV):  -12.42225
    FORVDW:  cpu time    0.1186: real time    0.1187

  FORCE on cell =-STRESS in cart. coord.  units (eV):
  Direction    XX          YY          ZZ          XY          YZ          ZX
  --------------------------------------------------------------------------------------
  Alpha Z  3793.46401  3793.46401  3793.46401
  Ewald  706958.23560706780.78265************  -394.20681  -187.35421   175.56087
  Hartree760273.00103760113.19326************  -327.39540  -127.43484   122.13767
  E(xc)   -9431.94901 -9431.93698 -9453.49132    -0.06748    -0.22815     0.21478
  Local  ************************************   724.53832   311.30463  -292.62520
  n-local -3117.52001 -3117.73588 -3209.89084    -1.32094    -0.16376     0.18396
  augment 13612.45289 13612.61620 13680.20001    -0.03440     0.01955    -0.05183
  Kinetic 13617.00812 13614.05482 13808.32116    -1.71274     3.67182    -5.36780
  Fock        0.00000     0.00000     0.00000     0.00000     0.00000     0.00000
  vdW       -16.61411   -16.53889   -12.64798     0.10203     0.03293    -0.03188
  -------------------------------------------------------------------------------------
  Total      12.13895    12.18611    -3.63510    -0.09742    -0.15204     0.02057
  in kB       4.62007     4.63802    -1.38351    -0.03708    -0.05787     0.00783
  external pressure =        2.62 kB  Pullay stress =        0.00 kB



--------------------------------------------------------------------------------------------------------



  FREE ENERGIE OF THE ION-ELECTRON SYSTEM (eV)
  ---------------------------------------------------
  free  energy   TOTEN  =      -633.04441149 eV

  energy  without entropy=     -632.99531446  energy(sigma->0) =     -633.01986297
 
 d Force = 0.6928851E-04[ 0.211E-04, 0.117E-03]  d Energy = 0.6295068E-04 0.634E-05
 d Force = 0.3552598E+01[ 0.355E+01, 0.355E+01]  d Ewald  = 0.3552597E+01 0.126E-05


--------------------------------------------------------------------------------------------------------


    POTLOK:  cpu time    0.1250: real time    0.1252


--------------------------------------------------------------------------------------------------------




--------------------------------------------------------------------------------------------------------


    WAVPRE:  cpu time    0.0776: real time    0.0789
    FEWALD:  cpu time    0.0044: real time    0.0044
    ORTHCH:  cpu time    5.8594: real time    5.9155
     LOOP+:  cpu time  227.4654: real time  229.3317


--------------------------------------- Iteration    256(   1)  ---------------------------------------


    POTLOK:  cpu time    0.1090: real time    0.1093
    SETDIJ:  cpu time    0.0123: real time    0.0123
     EDDAV:  cpu time   52.6296: real time   52.9695
       DOS:  cpu time    0.0011: real time    0.0011
    CHARGE:  cpu time    2.0454: real time    2.0905
    MIXING:  cpu time    0.0031: real time    0.0030
    --------------------------------------------
      LOOP:  cpu time   54.8006: real time   55.1858

 eigenvalue-minimisations  : 10560
 total energy-change (2. order) :-0.5956172E-04  (-0.7050464E-03)
 number of electron    1631.9999246 magnetization 
 augmentation part     1011.4509800 magnetization 

 DIPCOR: dipole corrections for dipol
 direction  3 min pos   153,
 dipolmoment           0.000000      0.000000     -0.580791 electrons x Angstroem
 Tr[quadrupol]    -65182.737685

 energy correction for charged system         0.000000 eV
 dipol+quadrupol energy correction           -0.007285 eV
 added-field ion interaction        -20.416708 eV  (added to PSCEN)


  free energy =  -0.620622227372E+03  energy without entropy=  -0.620573103546E+03


--------------------------------------------------------------------------------------------------------




--------------------------------------- Iteration    256(   2)  ---------------------------------------


    POTLOK:  cpu time    0.1083: real time    0.1092
    SETDIJ:  cpu time    0.0121: real time    0.0121
    EDDIAG:  cpu time    9.7883: real time    9.8418
  RMM-DIIS:  cpu time   16.0184: real time   16.2139
    ORTHCH:  cpu time    3.2025: real time    3.2187
       DOS:  cpu time    0.0011: real time    0.0011
    CHARGE:  cpu time    2.0697: real time    2.0816
    MIXING:  cpu time    0.0033: real time    0.0033
    --------------------------------------------
      LOOP:  cpu time   31.2037: real time   31.4818

 eigenvalue-minimisations  :  6694
 total energy-change (2. order) :-0.7432711E-05  (-0.1135379E-04)
 number of electron    1631.9999246 magnetization 
 augmentation part     1011.4508038 magnetization 

 DIPCOR: dipole corrections for dipol
 direction  3 min pos   153,
 dipolmoment           0.000000      0.000000     -0.580110 electrons x Angstroem
 Tr[quadrupol]    -65182.738689

 energy correction for charged system         0.000000 eV
 dipol+quadrupol energy correction           -0.007267 eV
 added-field ion interaction        -20.392764 eV  (added to PSCEN)


 eigenvalues of (default mixing * dielectric matrix)
  average eigenvalue GAMMA=   1.5241
  1.5241

  free energy =  -0.620622234804E+03  energy without entropy=  -0.620573122284E+03


--------------------------------------------------------------------------------------------------------




--------------------------------------- Iteration    256(   3)  ---------------------------------------


    POTLOK:  cpu time    0.1094: real time    0.1098
    SETDIJ:  cpu time    0.0122: real time    0.0123
    EDDIAG:  cpu time    9.7637: real time    9.8280
  RMM-DIIS:  cpu time   14.6890: real time   14.8258
    ORTHCH:  cpu time    3.1988: real time    3.2311
       DOS:  cpu time    0.0011: real time    0.0011
    CHARGE:  cpu time    2.0586: real time    2.0747
    MIXING:  cpu time    0.0036: real time    0.0036
    --------------------------------------------
      LOOP:  cpu time   29.8363: real time   30.0864

 eigenvalue-minimisations  :  6100
 total energy-change (2. order) :-0.1877104E-04  (-0.3011574E-05)
 number of electron    1631.9999246 magnetization 
 augmentation part     1011.4504610 magnetization 

 DIPCOR: dipole corrections for dipol
 direction  3 min pos   153,
 dipolmoment           0.000000      0.000000     -0.583084 electrons x Angstroem
 Tr[quadrupol]    -65182.736393

 energy correction for charged system         0.000000 eV
 dipol+quadrupol energy correction           -0.007342 eV
 added-field ion interaction        -20.497287 eV  (added to PSCEN)


 eigenvalues of (default mixing * dielectric matrix)
  average eigenvalue GAMMA=   1.1269
  2.0382  0.2157

  free energy =  -0.620622253575E+03  energy without entropy=  -0.620573107215E+03


--------------------------------------------------------------------------------------------------------




--------------------------------------- Iteration    256(   4)  ---------------------------------------


    POTLOK:  cpu time    0.1083: real time    0.1093
    SETDIJ:  cpu time    0.0122: real time    0.0122
    EDDIAG:  cpu time    9.7581: real time    9.8189
  RMM-DIIS:  cpu time   13.9805: real time   14.1260
    ORTHCH:  cpu time    3.3119: real time    3.3242
       DOS:  cpu time    0.0011: real time    0.0011
    CHARGE:  cpu time    2.0602: real time    2.0785
    MIXING:  cpu time    0.0036: real time    0.0036
    --------------------------------------------
      LOOP:  cpu time   29.2359: real time   29.4738

 eigenvalue-minimisations  :  5788
 total energy-change (2. order) : 0.1813818E-04  (-0.9677100E-06)
 number of electron    1631.9999246 magnetization 
 augmentation part     1011.4509391 magnetization 

 DIPCOR: dipole corrections for dipol
 direction  3 min pos   153,
 dipolmoment           0.000000      0.000000     -0.580335 electrons x Angstroem
 Tr[quadrupol]    -65182.739977

 energy correction for charged system         0.000000 eV
 dipol+quadrupol energy correction           -0.007273 eV
 added-field ion interaction        -20.400682 eV  (added to PSCEN)


 eigenvalues of (default mixing * dielectric matrix)
  average eigenvalue GAMMA=   0.9968
  2.2878  0.5151  0.1875

  free energy =  -0.620622235437E+03  energy without entropy=  -0.620573101150E+03


--------------------------------------------------------------------------------------------------------




--------------------------------------- Iteration    256(   5)  ---------------------------------------


    POTLOK:  cpu time    0.1096: real time    0.1103
    SETDIJ:  cpu time    0.0121: real time    0.0121
    EDDIAG:  cpu time    9.7887: real time    9.8409
  RMM-DIIS:  cpu time   13.4773: real time   13.6046
    ORTHCH:  cpu time    3.3124: real time    3.3266
       DOS:  cpu time    0.0011: real time    0.0011
    --------------------------------------------
      LOOP:  cpu time   26.7012: real time   26.8956

 eigenvalue-minimisations  :  5560
 total energy-change (2. order) : 0.7837662E-06  (-0.4269282E-06)
 number of electron    1631.9999246 magnetization 
 augmentation part     1011.4509391 magnetization 

 DIPCOR: dipole corrections for dipol
 direction  3 min pos   153,
 dipolmoment           0.000000      0.000000     -0.580791 electrons x Angstroem
 Tr[quadrupol]    -65182.739093

 energy correction for charged system         0.000000 eV
 dipol+quadrupol energy correction           -0.007284 eV
 added-field ion interaction        -20.416684 eV  (added to PSCEN)


  free energy =  -0.620622234653E+03  energy without entropy=  -0.620573119484E+03


--------------------------------------------------------------------------------------------------------




------------------------ aborting loop because EDIFF is reached ----------------------------------------


    CHARGE:  cpu time    2.0388: real time    2.0838
    FORLOC:  cpu time    0.0835: real time    0.0835
    FORNL :  cpu time    8.1655: real time    8.2294
    STRESS:  cpu time   24.3416: real time   24.5401
    FORCOR:  cpu time    0.1583: real time    0.1583
    FORHAR:  cpu time    0.1010: real time    0.1010
    MIXING:  cpu time    0.0038: real time    0.0038
    OFIELD:  cpu time    0.0001: real time    0.0001

  Number of pair interactions contributing to vdW energy:  835425
  Edisp (eV):  -12.42225
    FORVDW:  cpu time    0.1186: real time    0.1187

  FORCE on cell =-STRESS in cart. coord.  units (eV):
  Direction    XX          YY          ZZ          XY          YZ          ZX
  --------------------------------------------------------------------------------------
  Alpha Z  3793.46401  3793.46401  3793.46401
  Ewald  706956.82510706779.81665************  -394.27295  -187.33304   175.55443
  Hartree760271.14000760111.61001************  -327.44354  -127.42614   122.14994
  E(xc)   -9431.94826 -9431.93578 -9453.49111    -0.06753    -0.22806     0.21460
  Local  ************************************   724.65341   311.27432  -292.63363
  n-local -3117.57476 -3117.79041 -3209.93879    -1.32202    -0.16340     0.18258
  augment 13612.44474 13612.60772 13680.19371    -0.03461     0.01951    -0.05171
  Kinetic 13617.00766 13614.03796 13808.33449    -1.71297     3.66716    -5.35894
  Fock        0.00000     0.00000     0.00000     0.00000     0.00000     0.00000
  vdW       -16.61379   -16.53880   -12.64775     0.10207     0.03301    -0.03183
  -------------------------------------------------------------------------------------
  Total      12.05880    12.11890    -3.73283    -0.09816    -0.15665     0.02545
  in kB       4.58956     4.61243    -1.42071    -0.03736    -0.05962     0.00969
  external pressure =        2.59 kB  Pullay stress =        0.00 kB



--------------------------------------------------------------------------------------------------------



  FREE ENERGIE OF THE ION-ELECTRON SYSTEM (eV)
  ---------------------------------------------------
  free  energy   TOTEN  =      -633.04448652 eV

  energy  without entropy=     -632.99537135  energy(sigma->0) =     -633.01992893
 
 d Force = 0.7836073E-04[ 0.550E-04, 0.102E-03]  d Energy = 0.7502897E-04 0.333E-05
 d Force = 0.1189512E+01[ 0.119E+01, 0.119E+01]  d Ewald  = 0.1189512E+01 0.683E-07


--------------------------------------------------------------------------------------------------------


    POTLOK:  cpu time    0.1238: real time    0.1238


--------------------------------------------------------------------------------------------------------


 Conjugate gradient step on ions:
 trial-energy change:   -0.000075  1 .order   -0.000078   -0.000102   -0.000055
  (g-gl).g = 0.762E-04      g.g   = 0.108E-03  gl.gl    = 0.143E-03
 g(Force)  = 0.108E-03   g(Stress)= 0.000E+00 ortho     = 0.170E-04
 gamma     =   0.53458
 trial     =   0.87169
 opt step  =   1.89713  (harmonic =   1.89713) maximal distance =0.00159190
 next E    =  -633.044522   (d E  =  -0.00011)


--------------------------------------------------------------------------------------------------------


  
 reached required accuracy - stopping structural energy minimisation
     LOOP+:  cpu time  206.9754: real time  208.6359
    4ORBIT:  cpu time    0.0000: real time    0.0000

 total amount of memory used by VASP MPI-rank0   289920. kBytes
=======================================================================

   base      :      30000. kBytes
   nonlr-proj:      52677. kBytes
   fftplans  :       7568. kBytes
   grid      :      39168. kBytes
   one-center:       2534. kBytes
   wavefun   :     157973. kBytes
 
  
  
 General timing and accounting informations for this job:
 ========================================================
  
                  Total CPU time used (sec):    68069.516
                            User time (sec):    67944.095
                          System time (sec):      125.422
                         Elapsed time (sec):    68197.227
  
                   Maximum memory used (kb):      644692.
                   Average memory used (kb):           0.
  
                          Minor page faults:      4728760
                          Major page faults:            0
                 Voluntary context switches:        17992
