 vasp.5.4.4.18Apr17-6-g9f103f2a35 (build Jun 30 2017 19:19:18) complex          
  
 executed on         MareNostrum4 date 2022.04.05  13:06:56
 running on   48 total cores
 distrk:  each k-point on   48 cores,    1 groups
 distr:  one band on NCORES_PER_BAND=   1 cores,   48 groups


--------------------------------------------------------------------------------------------------------


 INCAR:
 POTCAR:    PAW_PBE Cu 22Jun2005                  
 POTCAR:    PAW_PBE O 08Apr2002                   
 POTCAR:    PAW_PBE C 08Apr2002                   
 POTCAR:    PAW_PBE N 08Apr2002                   
 POTCAR:    PAW_PBE H 15Jun2001                   

 ----------------------------------------------------------------------------- 
|                                                                             |
|           W    W    AA    RRRRR   N    N  II  N    N   GGGG   !!!           |
|           W    W   A  A   R    R  NN   N  II  NN   N  G    G  !!!           |
|           W    W  A    A  R    R  N N  N  II  N N  N  G       !!!           |
|           W WW W  AAAAAA  RRRRR   N  N N  II  N  N N  G  GGG   !            |
|           WW  WW  A    A  R   R   N   NN  II  N   NN  G    G                |
|           W    W  A    A  R    R  N    N  II  N    N   GGGG   !!!           |
|                                                                             |
|      For optimal performance we recommend to set                            |
|        NCORE= 4 - approx SQRT( number of cores)                             |
|      NCORE specifies how many cores store one orbital (NPAR=cpu/NCORE).     |
|      This setting can  greatly improve the performance of VASP for DFT.     |
|      The default,   NCORE=1            might be grossly inefficient         |
|      on modern multi-core architectures or massively parallel machines.     |
|      Do your own testing !!!!                                               |
|      Unfortunately you need to use the default for GW and RPA calculations. |
|      (for HF NCORE is supported but not extensively tested yet)             |
|                                                                             |
 ----------------------------------------------------------------------------- 

 POTCAR:    PAW_PBE Cu 22Jun2005                  
  local pseudopotential read in
  partial core-charges read in
  partial kinetic energy density read in
  atomic valenz-charges read in
  non local Contribution for L=           2  read in
    real space projection operators read in
  non local Contribution for L=           2  read in
    real space projection operators read in
  non local Contribution for L=           0  read in
    real space projection operators read in
  non local Contribution for L=           0  read in
    real space projection operators read in
  non local Contribution for L=           1  read in
    real space projection operators read in
  non local Contribution for L=           1  read in
    real space projection operators read in
    PAW grid and wavefunctions read in
 
   number of l-projection  operators is LMAX  =           6
   number of lm-projection operators is LMMAX =          18
 
 POTCAR:    PAW_PBE O 08Apr2002                   
  local pseudopotential read in
  partial core-charges read in
  partial kinetic energy density read in
  kinetic energy density of atom read in
  atomic valenz-charges read in
  non local Contribution for L=           0  read in
    real space projection operators read in
  non local Contribution for L=           0  read in
    real space projection operators read in
  non local Contribution for L=           1  read in
    real space projection operators read in
  non local Contribution for L=           1  read in
    real space projection operators read in
    PAW grid and wavefunctions read in
 
   number of l-projection  operators is LMAX  =           4
   number of lm-projection operators is LMMAX =           8
 
 POTCAR:    PAW_PBE C 08Apr2002                   
  local pseudopotential read in
  partial core-charges read in
  partial kinetic energy density read in
  atomic valenz-charges read in
  non local Contribution for L=           0  read in
    real space projection operators read in
  non local Contribution for L=           0  read in
    real space projection operators read in
  non local Contribution for L=           1  read in
    real space projection operators read in
  non local Contribution for L=           1  read in
    real space projection operators read in
    PAW grid and wavefunctions read in
 
   number of l-projection  operators is LMAX  =           4
   number of lm-projection operators is LMMAX =           8
 
 POTCAR:    PAW_PBE N 08Apr2002                   
  local pseudopotential read in
  partial core-charges read in
  partial kinetic energy density read in
  atomic valenz-charges read in
  non local Contribution for L=           0  read in
    real space projection operators read in
  non local Contribution for L=           0  read in
    real space projection operators read in
  non local Contribution for L=           1  read in
    real space projection operators read in
  non local Contribution for L=           1  read in
    real space projection operators read in
    PAW grid and wavefunctions read in
 
   number of l-projection  operators is LMAX  =           4
   number of lm-projection operators is LMMAX =           8
 
 POTCAR:    PAW_PBE H 15Jun2001                   
  local pseudopotential read in
  atomic valenz-charges read in
  non local Contribution for L=           0  read in
    real space projection operators read in
  non local Contribution for L=           0  read in
    real space projection operators read in
  non local Contribution for L=           1  read in
    real space projection operators read in
    PAW grid and wavefunctions read in
 
   number of l-projection  operators is LMAX  =           3
   number of lm-projection operators is LMMAX =           5
 
 Optimization of the real space projectors (new method)

 maximal supplied QI-value         = 16.25
 optimisation between [QCUT,QGAM] = [ 10.73, 21.61] = [ 32.22,130.83] Ry 
 Optimized for a Real-space Cutoff    1.42 Angstroem

   l    n(q)    QCUT    max X(q) W(low)/X(q) W(high)/X(q)  e(spline) 
   2      8    10.726     4.610    0.15E-03    0.25E-03    0.14E-06
   2      8    10.726     8.522    0.25E-03    0.43E-03    0.27E-06
   0      9    10.726    51.609    0.94E-04    0.10E-03    0.12E-06
   0      9    10.726    27.747    0.85E-04    0.96E-04    0.11E-06
   1      9    10.726    20.408    0.25E-03    0.14E-03    0.12E-06
   1      9    10.726    13.425    0.22E-03    0.13E-03    0.11E-06
 Optimization of the real space projectors (new method)

 maximal supplied QI-value         = 24.76
 optimisation between [QCUT,QGAM] = [ 10.64, 21.54] = [ 31.73,129.89] Ry 
 Optimized for a Real-space Cutoff    1.23 Angstroem

   l    n(q)    QCUT    max X(q) W(low)/X(q) W(high)/X(q)  e(spline) 
   0      8    10.645    20.381    0.38E-03    0.60E-03    0.15E-06
   0      8    10.645    15.268    0.40E-03    0.65E-03    0.17E-06
   1      7    10.645     5.964    0.30E-03    0.63E-03    0.18E-06
   1      7    10.645     5.382    0.24E-03    0.53E-03    0.16E-06
 Optimization of the real space projectors (new method)

 maximal supplied QI-value         = 25.13
 optimisation between [QCUT,QGAM] = [ 10.81, 21.61] = [ 32.71,130.83] Ry 
 Optimized for a Real-space Cutoff    1.23 Angstroem

   l    n(q)    QCUT    max X(q) W(low)/X(q) W(high)/X(q)  e(spline) 
   0      8    10.807   115.676    0.36E-03    0.72E-03    0.24E-06
   0      8    10.807    87.132    0.35E-03    0.71E-03    0.24E-06
   1      7    10.807     4.429    0.19E-03    0.39E-03    0.11E-06
   1      7    10.807     2.733    0.14E-03    0.28E-03    0.13E-06
 Optimization of the real space projectors (new method)

 maximal supplied QI-value         = 25.13
 optimisation between [QCUT,QGAM] = [ 10.81, 21.61] = [ 32.71,130.83] Ry 
 Optimized for a Real-space Cutoff    1.23 Angstroem

   l    n(q)    QCUT    max X(q) W(low)/X(q) W(high)/X(q)  e(spline) 
   0      8    10.807    79.467    0.34E-03    0.68E-03    0.21E-06
   0      8    10.807    66.151    0.34E-03    0.67E-03    0.21E-06
   1      7    10.807    14.030    0.45E-03    0.13E-02    0.11E-05
   1      7    10.807     9.831    0.48E-03    0.13E-02    0.11E-05
 Optimization of the real space projectors (new method)

 maximal supplied QI-value         = 34.20
 optimisation between [QCUT,QGAM] = [ 10.60, 21.55] = [ 31.48,130.03] Ry 
 Optimized for a Real-space Cutoff    1.23 Angstroem

   l    n(q)    QCUT    max X(q) W(low)/X(q) W(high)/X(q)  e(spline) 
   0      8    10.603    19.460    0.37E-03    0.59E-03    0.23E-06
   0      8    10.603    12.209    0.35E-03    0.56E-03    0.22E-06
   1      7    10.603     4.655    0.70E-04    0.28E-03    0.29E-06
  PAW_PBE Cu 22Jun2005                  :
 energy of atom  1       EATOM=-1390.9808
 kinetic energy error for atom=    0.0097 (will be added to EATOM!!)
  PAW_PBE O 08Apr2002                   :
 energy of atom  2       EATOM= -432.3788
 kinetic energy error for atom=    0.0389 (will be added to EATOM!!)
  PAW_PBE C 08Apr2002                   :
 energy of atom  3       EATOM= -147.1560
 kinetic energy error for atom=    0.0116 (will be added to EATOM!!)
  PAW_PBE N 08Apr2002                   :
 energy of atom  4       EATOM= -264.5486
 kinetic energy error for atom=    0.0253 (will be added to EATOM!!)
  PAW_PBE H 15Jun2001                   :
 energy of atom  5       EATOM=  -12.4884
 kinetic energy error for atom=    0.0045 (will be added to EATOM!!)
 
 
 POSCAR: Cu  O  C  N  H                          
  positions in cartesian coordinates
  No initial velocities read in
 exchange correlation table for  LEXCH =        8
   RHO(1)=    0.500       N(1)  =     2000
   RHO(2)=  100.500       N(2)  =     4000
 


--------------------------------------------------------------------------------------------------------


 ion  position               nearest neighbor table
   1  0.000  0.000  0.000-   2 2.52   3 2.52   4 2.52  28 2.52  10 2.52  35 2.52  70 2.52  40 2.52
                            47 2.52
   2  0.000  0.167  0.000-   3 2.52   1 2.52   8 2.52  28 2.52   5 2.52  27 2.52  39 2.52  61 2.52
                            40 2.52
   3  0.167  0.167  0.000-   2 2.52   1 2.52   8 2.52  14 2.52   4 2.52  17 2.52  38 2.52  40 2.52
                            37 2.52
   4  0.167  0.000  0.000-  10 2.52  14 2.52   1 2.52  13 2.52   3 2.52  11 2.52  47 2.52  37 2.52
                            46 2.52
   5  0.000  0.333  0.000-   6 2.52   8 2.52  32 2.52   7 2.52  27 2.52   2 2.52  62 2.52  44 2.52
                            39 2.52
   6  0.000  0.500  0.000-  12 2.52   5 2.52   7 2.52   9 2.52  32 2.52  31 2.52  43 2.52  65 2.52
                            44 2.52
   7  0.167  0.500  0.000-  18 2.52   8 2.52  21 2.52   6 2.52   5 2.52  12 2.52  42 2.52  44 2.52
                            41 2.52
   8  0.167  0.333  0.000-   7 2.52   2 2.52  18 2.52   3 2.52   5 2.52  17 2.52  39 2.52  41 2.52
                            38 2.52
   9  0.000  0.667  0.000-  10 2.52  12 2.52  36 2.52  31 2.52   6 2.52  11 2.52  66 2.52  48 2.52
                            43 2.52
  10  0.000  0.833  0.000-   4 2.52   9 2.52  11 2.52   1 2.52  36 2.52  35 2.52  47 2.52  69 2.52
                            48 2.52
  11  0.167  0.833  0.000-  22 2.52  13 2.52  12 2.52  10 2.52   4 2.52   9 2.52  46 2.52  48 2.52
                            45 2.52
  12  0.167  0.667  0.000-   6 2.52  11 2.52  22 2.52   9 2.52  21 2.52   7 2.52  43 2.52  45 2.52
                            42 2.52
  13  0.333  0.000  0.000-  15 2.52  22 2.52  11 2.52  16 2.52   4 2.52  14 2.52  46 2.52  52 2.52
                            59 2.52
  14  0.333  0.167  0.000-   4 2.52  17 2.52  15 2.52   3 2.52  13 2.52  20 2.52  37 2.52  51 2.52
                            52 2.52
  15  0.500  0.167  0.000-  13 2.52  20 2.52  14 2.52  26 2.52  16 2.52  29 2.52  50 2.52  52 2.52
                            49 2.52
  16  0.500  0.000  0.000-  26 2.52  25 2.52  13 2.52  23 2.52  15 2.52  22 2.52  59 2.52  49 2.52
                            58 2.52
  17  0.333  0.333  0.000-  14 2.52  20 2.52   8 2.52  19 2.52  18 2.52   3 2.52  38 2.52  56 2.52
                            51 2.52
  18  0.333  0.500  0.000-   7 2.52  21 2.52   8 2.52  17 2.52  24 2.52  19 2.52  41 2.52  55 2.52
                            56 2.52
  19  0.500  0.500  0.000-  30 2.52  33 2.52  20 2.52  17 2.52  24 2.52  18 2.52  54 2.52  56 2.52
                            53 2.52
  20  0.500  0.333  0.000-  19 2.52  30 2.52  15 2.52  29 2.52  17 2.52  14 2.52  51 2.52  53 2.52
                            50 2.52
  21  0.333  0.667  0.000-  18 2.52   7 2.52  24 2.52  12 2.52  23 2.52  22 2.52  42 2.52  60 2.52
                            55 2.52
  22  0.333  0.833  0.000-  11 2.52  13 2.52  12 2.52  16 2.52  21 2.52  23 2.52  45 2.52  59 2.52
                            60 2.52
  23  0.500  0.833  0.000-  34 2.52  25 2.52  24 2.52  16 2.52  21 2.52  22 2.52  58 2.52  60 2.52
                            57 2.52
  24  0.500  0.667  0.000-  23 2.52  34 2.52  33 2.52  21 2.52  18 2.52  19 2.52  55 2.52  57 2.52
                            54 2.52
  25  0.667  0.000  0.000-  23 2.52  27 2.52  34 2.52  16 2.52  28 2.52  26 2.52  58 2.52  64 2.52
                            71 2.52
  26  0.667  0.167  0.000-  16 2.52  29 2.52  27 2.52  15 2.52  25 2.52  32 2.52  49 2.52  63 2.52
                            64 2.52
  27  0.833  0.167  0.000-  25 2.52  32 2.52  26 2.52  28 2.52   5 2.52   2 2.52  62 2.52  64 2.52
                            61 2.52
  28  0.833  0.000  0.000-  35 2.52   1 2.52  25 2.52  27 2.52  34 2.52   2 2.52  71 2.52  61 2.52
                            70 2.52
  29  0.667  0.333  0.000-  31 2.52  26 2.52  20 2.52  32 2.52  30 2.52  15 2.52  50 2.52  68 2.52
                            63 2.52
  30  0.667  0.500  0.000-  19 2.52  20 2.52  33 2.52  31 2.52  29 2.52  36 2.52  53 2.52  67 2.52
                            68 2.52
  31  0.833  0.500  0.000-  36 2.52  29 2.52  30 2.52  32 2.52   9 2.52   6 2.52  66 2.52  68 2.52
                            65 2.52
  32  0.833  0.333  0.000-  27 2.52   5 2.52  29 2.52   6 2.52  31 2.52  26 2.52  63 2.52  65 2.52
                            62 2.52
  33  0.667  0.667  0.000-  19 2.52  30 2.52  35 2.52  24 2.52  36 2.52  34 2.52  54 2.52  72 2.52
                            67 2.52
  34  0.667  0.833  0.000-  23 2.52  25 2.52  24 2.52  35 2.52  28 2.52  33 2.52  57 2.52  71 2.52
                            72 2.52
  35  0.833  0.833  0.000-  28 2.52  33 2.52  34 2.52   1 2.52  36 2.52  10 2.52  70 2.52  72 2.52
                            69 2.52
  36  0.833  0.667  0.000-  31 2.52   9 2.52  33 2.52  30 2.52  10 2.52  35 2.52  67 2.52  69 2.52
                            66 2.52
  37  0.222  0.111  0.097-  75 2.50  76 2.50  74 2.50  51 2.52  52 2.52  38 2.52  46 2.52  40 2.52
                            47 2.52  14 2.52   4 2.52   3 2.52
  38  0.222  0.278  0.097-  76 2.50  73 2.50  79 2.50  37 2.52  51 2.52  40 2.52  56 2.52  39 2.52
                            41 2.52   3 2.52  17 2.52   8 2.52
  39  0.056  0.278  0.097-  73 2.50 100 2.50  78 2.50  40 2.52  61 2.52  62 2.52  38 2.52  41 2.52
                            44 2.52   2 2.52   8 2.52   5 2.52
  40  0.056  0.111  0.097-  74 2.50  99 2.50  73 2.50  39 2.52  61 2.52  38 2.52  70 2.52  37 2.52
                            47 2.52   3 2.52   1 2.52   2 2.52
  41  0.222  0.444  0.097-  79 2.50  80 2.50  78 2.50  55 2.52  56 2.52  42 2.52  38 2.52  44 2.52
                            39 2.52  18 2.52   8 2.52   7 2.52
  42  0.222  0.611  0.097-  80 2.50  77 2.50  83 2.50  41 2.52  55 2.52  44 2.52  60 2.52  43 2.52
                            45 2.52   7 2.52  21 2.52  12 2.52
  43  0.056  0.611  0.097-  77 2.50 104 2.50  82 2.50  44 2.52  65 2.52  66 2.52  42 2.52  48 2.52
                            45 2.52   6 2.52  12 2.52   9 2.52
  44  0.056  0.444  0.097-  78 2.50 103 2.50  77 2.50  43 2.52  65 2.52  42 2.52  62 2.52  41 2.52
                            39 2.52   7 2.52   5 2.52   6 2.52
  45  0.222  0.778  0.097-  83 2.50  84 2.50  82 2.50  59 2.52  60 2.52  46 2.52  42 2.52  48 2.52
                            43 2.52  22 2.52  12 2.52  11 2.52
  46  0.222  0.944  0.097-  84 2.50  81 2.50  75 2.50  45 2.52  59 2.52  48 2.52  52 2.52  47 2.52
                            37 2.52  11 2.52  13 2.52   4 2.52
  47  0.056  0.944  0.097-  81 2.50 108 2.50  74 2.50  69 2.52  48 2.52  70 2.52  46 2.52  40 2.52
                            37 2.52  10 2.52   4 2.52   1 2.52
  48  0.056  0.778  0.097-  82 2.50 107 2.50  81 2.50  47 2.52  69 2.52  46 2.52  66 2.52  45 2.52
                            43 2.52  11 2.52   9 2.52  10 2.52
  49  0.556  0.111  0.097-  87 2.50  88 2.50  86 2.50  63 2.52  64 2.52  50 2.52  58 2.52  52 2.52
                            59 2.52  26 2.52  16 2.52  15 2.52
  50  0.556  0.278  0.097-  88 2.50  85 2.50  91 2.50  49 2.52  63 2.52  52 2.52  68 2.52  51 2.52
                            53 2.52  15 2.52  29 2.52  20 2.52
  51  0.389  0.278  0.097-  85 2.50  76 2.50  90 2.50  37 2.52  52 2.52  38 2.52  50 2.52  56 2.52
                            53 2.52  14 2.52  20 2.52  17 2.52
  52  0.389  0.111  0.097-  86 2.50  75 2.50  85 2.50  51 2.52  37 2.52  50 2.52  46 2.52  49 2.52
                            59 2.52  15 2.52  13 2.52  14 2.52
  53  0.556  0.444  0.097-  91 2.50  92 2.50  90 2.50  67 2.52  68 2.52  54 2.52  50 2.52  56 2.52
                            51 2.52  30 2.52  20 2.52  19 2.52
  54  0.556  0.611  0.097-  92 2.50  89 2.50  95 2.50  53 2.52  67 2.52  56 2.52  72 2.52  55 2.52
                            57 2.52  19 2.52  33 2.52  24 2.52
  55  0.389  0.611  0.097-  89 2.50  80 2.50  94 2.50  41 2.52  56 2.52  42 2.52  54 2.52  60 2.52
                            57 2.52  18 2.52  24 2.52  21 2.52
  56  0.389  0.444  0.097-  90 2.50  79 2.50  89 2.50  55 2.52  41 2.52  54 2.52  38 2.52  53 2.52
                            51 2.52  19 2.52  17 2.52  18 2.52
  57  0.556  0.778  0.097-  95 2.50  96 2.50  94 2.50  71 2.52  72 2.52  58 2.52  54 2.52  60 2.52
                            55 2.52  34 2.52  24 2.52  23 2.52
  58  0.556  0.944  0.097-  96 2.50  93 2.50  87 2.50  57 2.52  71 2.52  60 2.52  64 2.52  59 2.52
                            49 2.52  23 2.52  25 2.52  16 2.52
  59  0.389  0.944  0.097-  93 2.50  84 2.50  86 2.50  45 2.52  60 2.52  46 2.52  58 2.52  52 2.52
                            49 2.52  22 2.52  16 2.52  13 2.52
  60  0.389  0.778  0.097-  94 2.50  83 2.50  93 2.50  59 2.52  45 2.52  58 2.52  42 2.52  57 2.52
                            55 2.52  23 2.52  21 2.52  22 2.52
  61  0.889  0.111  0.097-  99 2.50 100 2.50  98 2.50  39 2.52  40 2.52  62 2.52  70 2.52  64 2.52
                            71 2.52   2 2.52  28 2.52  27 2.52
  62  0.889  0.278  0.097- 100 2.50  97 2.50 103 2.50  61 2.52  39 2.52  64 2.52  44 2.52  63 2.52
                            65 2.52  27 2.52   5 2.52  32 2.52
  63  0.722  0.278  0.097-  97 2.50  88 2.50 102 2.50  64 2.52  49 2.52  50 2.52  62 2.52  65 2.52
                            68 2.52  26 2.52  32 2.52  29 2.52
  64  0.722  0.111  0.097-  98 2.50  87 2.50  97 2.50  63 2.52  49 2.52  62 2.52  58 2.52  61 2.52
                            71 2.52  27 2.52  25 2.52  26 2.52
  65  0.889  0.444  0.097- 103 2.50 104 2.50 102 2.50  43 2.52  44 2.52  66 2.52  62 2.52  68 2.52
                            63 2.52   6 2.52  32 2.52  31 2.52
  66  0.889  0.611  0.097- 104 2.50 101 2.50 107 2.50  65 2.52  43 2.52  68 2.52  48 2.52  67 2.52
                            69 2.52  31 2.52   9 2.52  36 2.52
  67  0.722  0.611  0.097- 101 2.50  92 2.50 106 2.50  68 2.52  53 2.52  54 2.52  66 2.52  72 2.52
                            69 2.52  30 2.52  36 2.52  33 2.52
  68  0.722  0.444  0.097- 102 2.50  91 2.50 101 2.50  67 2.52  53 2.52  66 2.52  50 2.52  65 2.52
                            63 2.52  31 2.52  29 2.52  30 2.52
  69  0.889  0.778  0.097- 107 2.50 108 2.50 106 2.50  47 2.52  48 2.52  70 2.52  66 2.52  72 2.52
                            67 2.52  10 2.52  36 2.52  35 2.52
  70  0.889  0.944  0.097- 108 2.50 105 2.50  99 2.50  69 2.52  47 2.52  72 2.52  40 2.52  71 2.52
                            61 2.52  35 2.52   1 2.52  28 2.52
  71  0.722  0.944  0.097- 105 2.50  96 2.50  98 2.50  72 2.52  57 2.52  58 2.52  70 2.52  64 2.52
                            61 2.52  34 2.52  28 2.52  25 2.52
  72  0.722  0.778  0.097- 106 2.50  95 2.50 105 2.50  71 2.52  57 2.52  70 2.52  54 2.52  69 2.52
                            67 2.52  35 2.52  33 2.52  34 2.52
  73  0.111  0.222  0.193-  39 2.50  38 2.50  40 2.50  79 2.52  76 2.52  78 2.52  74 2.52 100 2.52
                            99 2.52 116 2.56 110 2.56 111 2.56
  74  0.111  0.056  0.193-  40 2.50  47 2.50  37 2.50  81 2.52  75 2.52 108 2.52  76 2.52  99 2.52
                            73 2.52 109 2.56 111 2.56 112 2.56
  75  0.278  0.056  0.193-  37 2.50  52 2.50  46 2.50  84 2.52  81 2.52  74 2.52  86 2.52  85 2.52
                            76 2.52 112 2.56 122 2.56 121 2.56
  76  0.278  0.222  0.193-  38 2.50  51 2.50  37 2.50  79 2.52  73 2.52  90 2.52  74 2.52  85 2.52
                            75 2.52 125 2.56 111 2.56 122 2.56
  77  0.111  0.556  0.193-  43 2.50  42 2.50  44 2.50  83 2.52  80 2.52  82 2.52  78 2.52 104 2.52
                           103 2.52 120 2.56 114 2.56 115 2.56
  78  0.111  0.389  0.193-  44 2.50  39 2.50  41 2.50  73 2.52  79 2.52 100 2.52  80 2.52 103 2.52
                            77 2.52 113 2.56 115 2.56 116 2.56
  79  0.278  0.389  0.193-  41 2.50  56 2.50  38 2.50  76 2.52  73 2.52  78 2.52  90 2.52  89 2.52
                            80 2.52 116 2.56 126 2.56 125 2.56
  80  0.278  0.556  0.193-  42 2.50  55 2.50  41 2.50  83 2.52  77 2.52  94 2.52  78 2.52  89 2.52
                            79 2.52 115 2.56 129 2.56 126 2.56
  81  0.111  0.889  0.193-  47 2.50  46 2.50  48 2.50  75 2.52  84 2.52  74 2.52  82 2.52 108 2.52
                           107 2.52 112 2.56 118 2.56 119 2.56
  82  0.111  0.722  0.193-  48 2.50  43 2.50  45 2.50  77 2.52  83 2.52 104 2.52  84 2.52 107 2.52
                            81 2.52 117 2.56 119 2.56 120 2.56
  83  0.278  0.722  0.193-  45 2.50  60 2.50  42 2.50  77 2.52  80 2.52  82 2.52  94 2.52  93 2.52
                            84 2.52 120 2.56 130 2.56 129 2.56
  84  0.278  0.889  0.193-  46 2.50  59 2.50  45 2.50  75 2.52  81 2.52  86 2.52  82 2.52  93 2.52
                            83 2.52 119 2.56 121 2.56 130 2.56
  85  0.444  0.222  0.193-  51 2.50  50 2.50  52 2.50  91 2.52  88 2.52  90 2.52  86 2.52  76 2.52
                            75 2.52 128 2.56 122 2.56 123 2.56
  86  0.444  0.056  0.193-  52 2.50  59 2.50  49 2.50  93 2.52  87 2.52  84 2.52  88 2.52  75 2.52
                            85 2.52 121 2.56 123 2.56 124 2.56
  87  0.611  0.056  0.193-  49 2.50  64 2.50  58 2.50  96 2.52  93 2.52  86 2.52  98 2.52  97 2.52
                            88 2.52 124 2.56 134 2.56 133 2.56
  88  0.611  0.222  0.193-  50 2.50  63 2.50  49 2.50  91 2.52  85 2.52 102 2.52  86 2.52  97 2.52
                            87 2.52 137 2.56 123 2.56 134 2.56
  89  0.444  0.556  0.193-  55 2.50  54 2.50  56 2.50  95 2.52  92 2.52  94 2.52  90 2.52  80 2.52
                            79 2.52 132 2.56 126 2.56 127 2.56
  90  0.444  0.389  0.193-  56 2.50  51 2.50  53 2.50  85 2.52  91 2.52  76 2.52  92 2.52  79 2.52
                            89 2.52 125 2.56 127 2.56 128 2.56
  91  0.611  0.389  0.193-  53 2.50  68 2.50  50 2.50  88 2.52  85 2.52  90 2.52 102 2.52 101 2.52
                            92 2.52 128 2.56 138 2.56 137 2.56
  92  0.611  0.556  0.193-  54 2.50  67 2.50  53 2.50  95 2.52  89 2.52 106 2.52  90 2.52 101 2.52
                            91 2.52 127 2.56 141 2.56 138 2.56
  93  0.444  0.889  0.193-  59 2.50  58 2.50  60 2.50  87 2.52  96 2.52  86 2.52  94 2.52  84 2.52
                            83 2.52 124 2.56 130 2.56 131 2.56
  94  0.444  0.722  0.193-  60 2.50  55 2.50  57 2.50  89 2.52  95 2.52  80 2.52  96 2.52  83 2.52
                            93 2.52 129 2.56 131 2.56 132 2.56
  95  0.611  0.722  0.193-  57 2.50  72 2.50  54 2.50  89 2.52  92 2.52  94 2.52 106 2.52 105 2.52
                            96 2.52 132 2.56 142 2.56 141 2.56
  96  0.611  0.889  0.193-  58 2.50  71 2.50  57 2.50  87 2.52  93 2.52  98 2.52  94 2.52 105 2.52
                            95 2.52 131 2.56 133 2.56 142 2.56
  97  0.778  0.222  0.193-  63 2.50  62 2.50  64 2.50 103 2.52 100 2.52 102 2.52  98 2.52  88 2.52
                            87 2.52 140 2.56 134 2.56 135 2.56
  98  0.778  0.056  0.193-  64 2.50  71 2.50  61 2.50 105 2.52  99 2.52  96 2.52 100 2.52  87 2.52
                            97 2.52 133 2.56 135 2.56 136 2.56
  99  0.944  0.056  0.193-  61 2.50  40 2.50  70 2.50 105 2.52 108 2.52  98 2.52  74 2.52 100 2.52
                            73 2.52 136 2.56 110 2.56 109 2.56
 100  0.944  0.222  0.193-  62 2.50  39 2.50  61 2.50 103 2.52  97 2.52  78 2.52  98 2.52  73 2.52
                            99 2.52 113 2.56 135 2.56 110 2.56
 101  0.778  0.556  0.193-  67 2.50  66 2.50  68 2.50 107 2.52 104 2.52 106 2.52 102 2.52  92 2.52
                            91 2.52 144 2.56 138 2.56 139 2.56
 102  0.778  0.389  0.193-  68 2.50  63 2.50  65 2.50  97 2.52 103 2.52  88 2.52 104 2.52  91 2.52
                           101 2.52 137 2.56 139 2.56 140 2.56
 103  0.944  0.389  0.193-  65 2.50  44 2.50  62 2.50  97 2.52 100 2.52 102 2.52  78 2.52  77 2.52
                           104 2.52 140 2.56 114 2.56 113 2.56
 104  0.944  0.556  0.193-  66 2.50  43 2.50  65 2.50 107 2.52 101 2.52  82 2.52 102 2.52  77 2.52
                           103 2.52 117 2.56 139 2.56 114 2.56
 105  0.778  0.889  0.193-  71 2.50  70 2.50  72 2.50  99 2.52 108 2.52  98 2.52 106 2.52  96 2.52
                            95 2.52 136 2.56 142 2.56 143 2.56
 106  0.778  0.722  0.193-  72 2.50  67 2.50  69 2.50 101 2.52 107 2.52  92 2.52 108 2.52  95 2.52
                           105 2.52 141 2.56 143 2.56 144 2.56
 107  0.944  0.722  0.193-  69 2.50  48 2.50  66 2.50 101 2.52 104 2.52 106 2.52  82 2.52  81 2.52
                           108 2.52 144 2.56 118 2.56 117 2.56
 108  0.944  0.889  0.193-  70 2.50  47 2.50  69 2.50  99 2.52 105 2.52  74 2.52 106 2.52  81 2.52
                           107 2.52 109 2.56 143 2.56 118 2.56
 109  0.000  0.000  0.293- 110 2.52 111 2.52 112 2.52 136 2.52 118 2.52 143 2.52 108 2.56  74 2.56
                            99 2.56
 110  0.000  0.167  0.293- 111 2.52 109 2.52 116 2.52 136 2.52 113 2.52 135 2.52  73 2.56  99 2.56
                           100 2.56
 111  0.167  0.167  0.293- 110 2.52 109 2.52 116 2.52 122 2.52 112 2.52 125 2.52  76 2.56  74 2.56
                            73 2.56
 112  0.167  0.000  0.293- 118 2.52 122 2.52 109 2.52 121 2.52 111 2.52 119 2.52  81 2.56  75 2.56
                            74 2.56
 113  0.000  0.333  0.293- 114 2.52 116 2.52 140 2.52 115 2.52 135 2.52 110 2.52 100 2.56  78 2.56
                           103 2.56
 114  0.000  0.500  0.293- 120 2.52 113 2.52 115 2.52 117 2.52 140 2.52 139 2.52  77 2.56 103 2.56
                           104 2.56
 115  0.167  0.500  0.293- 126 2.52 116 2.52 129 2.52 114 2.52 113 2.52 120 2.52  80 2.56  78 2.56
                            77 2.56
 116  0.167  0.333  0.293- 115 2.52 110 2.52 126 2.52 111 2.52 113 2.52 125 2.52  73 2.56  79 2.56
                            78 2.56
 117  0.000  0.667  0.293- 118 2.52 120 2.52 144 2.52 139 2.52 114 2.52 119 2.52 104 2.56  82 2.56
                           107 2.56
 118  0.000  0.833  0.293- 112 2.52 117 2.52 119 2.52 109 2.52 144 2.52 143 2.52  81 2.56 107 2.56
                           108 2.56
 119  0.167  0.833  0.293- 130 2.52 121 2.52 120 2.52 118 2.52 112 2.52 117 2.52  84 2.56  82 2.56
                            81 2.56
 120  0.167  0.667  0.293- 114 2.52 119 2.52 130 2.52 117 2.52 129 2.52 115 2.52  77 2.56  83 2.56
                            82 2.56
 121  0.333  0.000  0.293- 123 2.52 130 2.52 119 2.52 124 2.52 112 2.52 122 2.52  84 2.56  86 2.56
                            75 2.56
 122  0.333  0.167  0.293- 112 2.52 125 2.52 123 2.52 111 2.52 121 2.52 128 2.52  75 2.56  85 2.56
                            76 2.56
 123  0.500  0.167  0.293- 169 1.59 121 2.52 128 2.52 122 2.52 134 2.52 124 2.52 137 2.52  88 2.56
                            86 2.56  85 2.56
 124  0.500  0.000  0.293- 134 2.52 133 2.52 121 2.52 131 2.52 123 2.52 130 2.52  93 2.56  87 2.56
                            86 2.56
 125  0.333  0.333  0.293- 122 2.52 128 2.52 116 2.52 127 2.52 126 2.52 111 2.52  76 2.56  90 2.56
                            79 2.56
 126  0.333  0.500  0.293- 115 2.52 129 2.52 116 2.52 125 2.52 132 2.52 127 2.52  79 2.56  89 2.56
                            80 2.56
 127  0.500  0.500  0.293- 153 2.31 138 2.52 141 2.52 128 2.52 132 2.52 125 2.52 126 2.52  92 2.56
                            90 2.56  89 2.56
 128  0.500  0.333  0.293- 154 2.28 127 2.52 138 2.52 123 2.52 125 2.52 137 2.52 122 2.52  85 2.56
                            91 2.56  90 2.56
 129  0.333  0.667  0.293- 126 2.52 115 2.52 132 2.52 120 2.52 131 2.52 130 2.52  80 2.56  94 2.56
                            83 2.56
 130  0.333  0.833  0.293- 119 2.52 121 2.52 120 2.52 124 2.52 129 2.52 131 2.52  83 2.56  93 2.56
                            84 2.56
 131  0.500  0.833  0.293- 142 2.52 133 2.52 132 2.52 124 2.52 129 2.52 130 2.52  96 2.56  94 2.56
                            93 2.56
 132  0.500  0.667  0.293- 149 2.42 142 2.52 131 2.52 129 2.52 141 2.52 127 2.52 126 2.52  89 2.56
                            95 2.56  94 2.56
 133  0.667  0.000  0.293- 131 2.52 135 2.52 142 2.52 124 2.52 136 2.52 134 2.52  96 2.56  98 2.56
                            87 2.56
 134  0.667  0.167  0.293- 124 2.52 137 2.52 135 2.52 123 2.52 133 2.52 140 2.52  87 2.56  97 2.56
                            88 2.56
 135  0.833  0.167  0.293- 133 2.52 140 2.52 134 2.52 136 2.52 113 2.52 110 2.52 100 2.56  98 2.56
                            97 2.56
 136  0.833  0.000  0.293- 143 2.52 109 2.52 133 2.52 135 2.52 142 2.52 110 2.52 105 2.56  99 2.56
                            98 2.56
 137  0.667  0.333  0.293- 139 2.52 134 2.52 128 2.52 140 2.52 138 2.52 123 2.52  88 2.56 102 2.56
                            91 2.56
 138  0.667  0.500  0.293- 127 2.52 128 2.52 141 2.52 139 2.52 137 2.52 144 2.52  91 2.56 101 2.56
                            92 2.56
 139  0.833  0.500  0.293- 144 2.52 137 2.52 138 2.52 140 2.52 117 2.52 114 2.52 104 2.56 102 2.56
                           101 2.56
 140  0.833  0.333  0.293- 135 2.52 113 2.52 137 2.52 114 2.52 139 2.52 134 2.52  97 2.56 103 2.56
                           102 2.56
 141  0.667  0.667  0.293- 166 1.45 147 2.24 127 2.52 138 2.52 143 2.52 132 2.52 144 2.52 142 2.52
                            92 2.56 106 2.56  95 2.56
 142  0.667  0.833  0.293- 131 2.52 133 2.52 132 2.52 143 2.52 136 2.52 141 2.52  95 2.56 105 2.56
                            96 2.56
 143  0.833  0.833  0.293- 136 2.52 141 2.52 142 2.52 109 2.52 144 2.52 118 2.52 108 2.56 106 2.56
                           105 2.56
 144  0.833  0.667  0.293- 139 2.52 117 2.52 141 2.52 138 2.52 118 2.52 143 2.52 101 2.56 107 2.56
                           106 2.56
 145  0.422  0.300  0.405- 154 1.22
 146  0.590  0.343  0.393- 154 1.38 155 1.44
 147  0.684  0.684  0.398- 165 1.10 164 1.10 166 1.10 148 1.51 141 2.24
 148  0.570  0.635  0.401- 149 1.40 153 1.42 147 1.51
 149  0.523  0.693  0.406- 158 1.09 150 1.39 148 1.40 132 2.42
 150  0.417  0.650  0.409- 159 1.09 149 1.39 151 1.40
 151  0.354  0.544  0.408- 157 1.39 150 1.40 152 1.40
 152  0.400  0.483  0.404- 160 1.09 153 1.40 151 1.40
 153  0.506  0.527  0.400- 152 1.40 156 1.41 148 1.42 127 2.31
 154  0.512  0.365  0.399- 145 1.22 156 1.37 146 1.38 128 2.28
 155  0.558  0.236  0.398- 167 1.09 169 1.10 168 1.10 146 1.44
 156  0.554  0.468  0.396- 161 1.01 154 1.37 153 1.41
 157  0.249  0.499  0.414- 162 1.01 163 1.01 151 1.39
 158  0.570  0.776  0.407- 149 1.09
 159  0.383  0.699  0.413- 150 1.09
 160  0.353  0.400  0.403- 152 1.09
 161  0.631  0.507  0.391- 156 1.01
 162  0.219  0.543  0.401- 157 1.01
 163  0.208  0.426  0.398- 157 1.01
 164  0.716  0.661  0.437- 147 1.10
 165  0.720  0.767  0.400- 147 1.10
 166  0.710  0.665  0.354- 147 1.10 141 1.45
 167  0.625  0.230  0.386- 155 1.09
 168  0.532  0.209  0.447- 155 1.10
 169  0.495  0.190  0.366- 155 1.10 123 1.59
 
  LATTYP: Found a hexagonal cell.
 ALAT       =    15.1479005815
 C/A-ratio  =     1.3984776241
  
  Lattice vectors:
  
 A1 = (  15.1479005814,   0.0000000000,   0.0000000000)
 A2 = (  -7.5739502907,  13.1184667176,   0.0000000000)
 A3 = (   0.0000000000,   0.0000000000,  21.1840000153)


Analysis of symmetry for initial positions (statically):
=====================================================================
 Subroutine PRICEL returns:
 Original cell was already a primitive cell.
 

 Routine SETGRP: Setting up the symmetry group for a 
 hexagonal supercell.


 Subroutine GETGRP returns: Found  1 space group operations
 (whereof  1 operations were pure point group operations)
 out of a pool of 24 trial point group operations.


The static configuration has the point symmetry C_1 .


Analysis of symmetry for dynamics (positions and initial velocities):
=====================================================================
 Subroutine PRICEL returns:
 Original cell was already a primitive cell.
 

 Routine SETGRP: Setting up the symmetry group for a 
 hexagonal supercell.


 Subroutine GETGRP returns: Found  1 space group operations
 (whereof  1 operations were pure point group operations)
 out of a pool of 24 trial point group operations.


The dynamic configuration has the point symmetry C_1 .


Analysis of constrained symmetry for selective dynamics:
=====================================================================
 Subroutine PRICEL returns:
 Original cell was already a primitive cell.
 

 Routine SETGRP: Setting up the symmetry group for a 
 hexagonal supercell.


 Subroutine GETGRP returns: Found  1 space group operations
 (whereof  1 operations were pure point group operations)
 out of a pool of 24 trial point group operations.


The constrained configuration has the point symmetry C_1 .


 Subroutine INISYM returns: Found  1 space group operations
 (whereof  1 operations are pure point group operations),
 and found     1 'primitive' translations

 
 
 KPOINTS: K-POINTS                                

Automatic generation of k-mesh.
Space group operators:
 irot       det(A)        alpha          n_x          n_y          n_z        tau_x        tau_y        tau_z
    1     1.000000     0.000001     1.000000     0.000000     0.000000     0.000000     0.000000     0.000000
 
 Subroutine IBZKPT returns following result:
 ===========================================
 
 Found      5 irreducible k-points:
 
 Following reciprocal coordinates:
            Coordinates               Weight
  0.000000  0.000000  0.000000      1.000000
  0.333333 -0.000000  0.000000      2.000000
  0.000000  0.333333  0.000000      2.000000
  0.333333  0.333333  0.000000      2.000000
 -0.333333  0.333333  0.000000      2.000000
 
 Following cartesian coordinates:
            Coordinates               Weight
  0.000000  0.000000  0.000000      1.000000
  0.022005  0.012705  0.000000      2.000000
  0.000000  0.025409  0.000000      2.000000
  0.022005  0.038114  0.000000      2.000000
 -0.022005  0.012705  0.000000      2.000000
 


--------------------------------------------------------------------------------------------------------




 Dimension of arrays:
   k-points           NKPTS =      5   k-points in BZ     NKDIM =      5   number of bands    NBANDS=   1008
   number of dos      NEDOS =    301   number of ions     NIONS =    169
   non local maximal  LDIM  =      6   non local SUM 2l+1 LMDIM =     18
   total plane-waves  NPLWV = 716800
   max r-space proj   IRMAX =   2102   max aug-charges    IRDMAX=   5131
   dimension x,y,z NGX =    80 NGY =   80 NGZ =  112
   dimension x,y,z NGXF=   160 NGYF=  160 NGZF=  224
   support grid    NGXF=   160 NGYF=  160 NGZF=  224
   ions per type =             144   2   9   2  12
   NGX,Y,Z   is equivalent  to a cutoff of   8.78,  8.78,  8.79 a.u.
   NGXF,Y,Z  is equivalent  to a cutoff of  17.56, 17.56, 17.58 a.u.

 SYSTEM =  x                                       
 POSCAR =  Cu  O  C  N  H                          

 Startparameter for this run:
   NWRITE =      0    write-flag & timer
   PREC   = normal    normal or accurate (medium, high low for compatibility)
   ISTART =      0    job   : 0-new  1-cont  2-samecut
   ICHARG =      2    charge: 1-file 2-atom 10-const
   ISPIN  =      1    spin polarized calculation?
   LNONCOLLINEAR =      F non collinear calculations
   LSORBIT =      F    spin-orbit coupling
   INIWAV =      1    electr: 0-lowe 1-rand  2-diag
   LASPH  =      F    aspherical Exc in radial PAW
   METAGGA=      F    non-selfconsistent MetaGGA calc.

 Electronic Relaxation 1
   ENCUT  =  450.0 eV  33.07 Ry    5.75 a.u.  26.20 26.20 36.64*2*pi/ulx,y,z
   ENINI  =  450.0     initial cutoff
   ENAUG  =  644.9 eV  augmentation charge cutoff
   NELM   =     50;   NELMIN=  5; NELMDL= -7     # of ELM steps 
   EDIFF  = 0.1E-04   stopping-criterion for ELM
   LREAL  =      T    real-space projection
   NLSPLINE    = F    spline interpolate recip. space projectors
   LCOMPAT=      F    compatible to vasp.4.4
   GGA_COMPAT  = T    GGA compatible to vasp.4.4-vasp.4.6
   LMAXPAW     = -100 max onsite density
   LMAXMIX     =    2 max onsite mixed and CHGCAR
   VOSKOWN=      0    Vosko Wilk Nusair interpolation
   ROPT   =   -0.00050  -0.00050  -0.00050  -0.00050
   ROPT   =   -0.00050
 Ionic relaxation
   EDIFFG = -.2E-01   stopping-criterion for IOM
   NSW    =    300    number of steps for IOM
   NBLOCK =      1;   KBLOCK =    300    inner block; outer block 
   IBRION =      2    ionic relax: 0-MD 1-quasi-New 2-CG
   NFREE  =      2    steps in history (QN), initial steepest desc. (CG)
   ISIF   =      2    stress and relaxation
   IWAVPR =     11    prediction:  0-non 1-charg 2-wave 3-comb
   ISYM   =      2    0-nonsym 1-usesym 2-fastsym
   LCORR  =      T    Harris-Foulkes like correction to forces

   POTIM  = 0.1500    time-step for ionic-motion
   TEIN   =    0.0    initial temperature
   TEBEG  =    0.0;   TEEND  =   0.0 temperature during run
   SMASS  =  -3.00    Nose mass-parameter (am)
   estimated Nose-frequenzy (Omega)   =  0.10E-29 period in steps =****** mass=  -0.524E-26a.u.
   SCALEE = 1.0000    scale energy and forces
   NPACO  =    256;   APACO  = 16.0  distance and # of slots for P.C.
   PSTRESS=    0.0 pullay stress

  Mass of Ions in am
   POMASS =  63.55 16.00 12.01 14.00  1.00
  Ionic Valenz
   ZVAL   =  11.00  6.00  4.00  5.00  1.00
  Atomic Wigner-Seitz radii
   RWIGS  =  -1.00 -1.00 -1.00 -1.00 -1.00
  virtual crystal weights 
   VCA    =   1.00  1.00  1.00  1.00  1.00
   NELECT =    1654.0000    total number of electrons
   NUPDOWN=      -1.0000    fix difference up-down

 DOS related values:
   EMIN   =  10.00;   EMAX   =-10.00  energy-range for DOS
   EFERMI =   0.00
   ISMEAR =     0;   SIGMA  =   0.03  broadening in eV -4-tet -1-fermi 0-gaus

 Electronic relaxation 2 (details)
   IALGO  =     68    algorithm
   LDIAG  =      T    sub-space diagonalisation (order eigenvalues)
   LSUBROT=      F    optimize rotation matrix (better conditioning)
   TURBO    =      0    0=normal 1=particle mesh
   IRESTART =      0    0=no restart 2=restart with 2 vectors
   NREBOOT  =      0    no. of reboots
   NMIN     =      0    reboot dimension
   EREF     =   0.00    reference energy to select bands
   IMIX   =      4    mixing-type and parameters
     AMIX     =   0.40;   BMIX     =  1.00
     AMIX_MAG =   1.60;   BMIX_MAG =  1.00
     AMIN     =   0.10
     WC   =   100.;   INIMIX=   1;  MIXPRE=   1;  MAXMIX= -45

 Intra band minimization:
   WEIMIN = 0.0010     energy-eigenvalue tresh-hold
   EBREAK =  0.25E-08  absolut break condition
   DEPER  =   0.30     relativ break condition  

   TIME   =   0.40     timestep for ELM

  volume/ion in A,a.u.               =      24.91       168.09
  Fermi-wavevector in a.u.,A,eV,Ry     =   1.199054  2.265884 19.561519  1.437731
  Thomas-Fermi vector in A             =   2.334927
 
 Write flags
   LWAVE        =      F    write WAVECAR
   LDOWNSAMPLE  =      F    k-point downsampling of WAVECAR
   LCHARG       =      F    write CHGCAR
   LVTOT        =      F    write LOCPOT, total local potential
   LVHAR        =      F    write LOCPOT, Hartree potential only
   LELF         =      F    write electronic localiz. function (ELF)
   LORBIT       =      0    0 simple, 1 ext, 2 COOP (PROOUT), +10 PAW based schemes


 Dipole corrections
   LMONO  =      F    monopole corrections only (constant potential shift)
   LDIPOL =      T    correct potential (dipole corrections)
   IDIPOL =      3    1-x, 2-y, 3-z, 4-all directions 
   EPSILON=  1.0000000 bulk dielectric constant

 Exchange correlation treatment:
   GGA     =    PE    GGA type
   LEXCH   =     8    internal setting for exchange type
   VOSKOWN=      0    Vosko Wilk Nusair interpolation
   LHFCALC =     F    Hartree Fock is set to
   LHFONE  =     F    Hartree Fock one center treatment
   AEXX    =    0.0000 exact exchange contribution

 Linear response parameters
   LEPSILON=     F    determine dielectric tensor
   LRPA    =     F    only Hartree local field effects (RPA)
   LNABLA  =     F    use nabla operator in PAW spheres
   LVEL    =     F    velocity operator in full k-point grid
   LINTERFAST=   F  fast interpolation
   KINTER  =     0    interpolate to denser k-point grid
   CSHIFT  =0.1000    complex shift for real part using Kramers Kronig
   OMEGAMAX=  -1.0    maximum frequency
   DEG_THRESHOLD= 0.2000000E-02 threshold for treating states as degnerate
   RTIME   =   -0.100 relaxation time in fs
  (WPLASMAI=    0.000 imaginary part of plasma frequency in eV, 0.658/RTIME)
   DFIELD  = 0.0000000 0.0000000 0.0000000 field for delta impulse in time
 
 Orbital magnetization related:
   ORBITALMAG=     F  switch on orbital magnetization
   LCHIMAG   =     F  perturbation theory with respect to B field
   DQ        =  0.001000  dq finite difference perturbation B field
   LLRAUG    =     F  two centre corrections for induced B field



--------------------------------------------------------------------------------------------------------


 conjugate gradient relaxation of ions
   using selective dynamics as specified on POSCAR
   WARNING: If single coordinates had been selected the selection of coordinates
            is made according to the corresponding   d i r e c t   coordinates!
            Don't support selection of single cartesian coordinates -- sorry ...
  !
 charge density and potential will be updated during run
 non-spin polarized calculation
 RMM-DIIS sequential band-by-band and
  variant of blocked Davidson during initial phase
 perform sub-space diagonalisation
    before iterative eigenvector-optimisation
 modified Broyden-mixing scheme, WC =      100.0
 initial mixing is a Kerker type mixing with AMIX =  0.4000 and BMIX =      1.0000
 Hartree-type preconditioning will be used
 using additional bands          181
 real space projection scheme for non local part
 use partial core corrections
 calculate Harris-corrections to forces 
   (improved forces if not selfconsistent)
 use gradient corrections 
 use of overlap-Matrix (Vanderbilt PP)
 Gauss-broadening in eV      SIGMA  =   0.03


--------------------------------------------------------------------------------------------------------


  energy-cutoff  :      450.00
  volume of cell :     4209.63
      direct lattice vectors                 reciprocal lattice vectors
    15.147900581  0.000000000  0.000000000     0.066015749  0.038114210  0.000000000
    -7.573950291 13.118466718  0.000000000     0.000000000  0.076228421  0.000000000
     0.000000000  0.000000000 21.184000015     0.000000000  0.000000000  0.047205438

  length of vectors
    15.147900581 15.147900581 21.184000015     0.076228421  0.076228421  0.047205438


 
 k-points in units of 2pi/SCALE and weight: K-POINTS                                
   0.00000000  0.00000000  0.00000000       0.111
   0.02200525  0.01270474  0.00000000       0.222
   0.00000000  0.02540947  0.00000000       0.222
   0.02200525  0.03811421  0.00000000       0.222
  -0.02200525  0.01270474  0.00000000       0.222
 
 k-points in reciprocal lattice and weights: K-POINTS                                
   0.00000000  0.00000000  0.00000000       0.111
   0.33333333 -0.00000000  0.00000000       0.222
   0.00000000  0.33333333  0.00000000       0.222
   0.33333333  0.33333333  0.00000000       0.222
  -0.33333333  0.33333333  0.00000000       0.222
 
 position of ions in fractional coordinates (direct lattice) 
   0.00000000  0.00000000  0.00000000
   0.00000000  0.16666667  0.00000000
   0.16666667  0.16666667  0.00000000
   0.16666667  0.00000000  0.00000000
   0.00000000  0.33333333  0.00000000
   0.00000000  0.50000000  0.00000000
   0.16666667  0.50000000  0.00000000
   0.16666667  0.33333333  0.00000000
   0.00000000  0.66666667  0.00000000
   0.00000000  0.83333333  0.00000000
   0.16666667  0.83333333  0.00000000
   0.16666667  0.66666667  0.00000000
   0.33333333  0.00000000  0.00000000
   0.33333333  0.16666667  0.00000000
   0.50000000  0.16666667  0.00000000
   0.50000000  0.00000000  0.00000000
   0.33333333  0.33333333  0.00000000
   0.33333333  0.50000000  0.00000000
   0.50000000  0.50000000  0.00000000
   0.50000000  0.33333333  0.00000000
   0.33333333  0.66666667  0.00000000
   0.33333333  0.83333333  0.00000000
   0.50000000  0.83333333  0.00000000
   0.50000000  0.66666667  0.00000000
   0.66666667  0.00000000  0.00000000
   0.66666667  0.16666667  0.00000000
   0.83333333  0.16666667  0.00000000
   0.83333333  0.00000000  0.00000000
   0.66666667  0.33333333  0.00000000
   0.66666667  0.50000000  0.00000000
   0.83333333  0.50000000  0.00000000
   0.83333333  0.33333333  0.00000000
   0.66666667  0.66666667  0.00000000
   0.66666667  0.83333333  0.00000000
   0.83333333  0.83333333  0.00000000
   0.83333333  0.66666667  0.00000000
   0.22222334  0.11111000  0.09731000
   0.22222334  0.27777666  0.09731000
   0.05555666  0.27777666  0.09731000
   0.05555666  0.11111000  0.09731000
   0.22222334  0.44444334  0.09731000
   0.22222334  0.61110999  0.09731000
   0.05555666  0.61110999  0.09731000
   0.05555666  0.44444334  0.09731000
   0.22222334  0.77777667  0.09731000
   0.22222334  0.94444333  0.09731000
   0.05555666  0.94444333  0.09731000
   0.05555666  0.77777667  0.09731000
   0.55555667  0.11111000  0.09731000
   0.55555667  0.27777666  0.09731000
   0.38889000  0.27777666  0.09731000
   0.38889000  0.11111000  0.09731000
   0.55555667  0.44444334  0.09731000
   0.55555667  0.61110999  0.09731000
   0.38889000  0.61110999  0.09731000
   0.38889000  0.44444334  0.09731000
   0.55555667  0.77777667  0.09731000
   0.55555667  0.94444333  0.09731000
   0.38889000  0.94444333  0.09731000
   0.38889000  0.77777667  0.09731000
   0.88889001  0.11111000  0.09731000
   0.88889001  0.27777666  0.09731000
   0.72222333  0.27777666  0.09731000
   0.72222333  0.11111000  0.09731000
   0.88889001  0.44444334  0.09731000
   0.88889001  0.61110999  0.09731000
   0.72222333  0.61110999  0.09731000
   0.72222333  0.44444334  0.09731000
   0.88889001  0.77777667  0.09731000
   0.88889001  0.94444333  0.09731000
   0.72222333  0.94444333  0.09731000
   0.72222333  0.77777667  0.09731000
   0.11111000  0.22222334  0.19331573
   0.11111000  0.05555666  0.19331573
   0.27777666  0.05555666  0.19331573
   0.27777666  0.22222334  0.19331573
   0.11111000  0.55555667  0.19331573
   0.11111000  0.38889000  0.19331573
   0.27777666  0.38889000  0.19331573
   0.27777666  0.55555667  0.19331573
   0.11111000  0.88889001  0.19331573
   0.11111000  0.72222333  0.19331573
   0.27777666  0.72222333  0.19331573
   0.27777666  0.88889001  0.19331573
   0.44444334  0.22222334  0.19331573
   0.44444333  0.05555666  0.19331573
   0.61110999  0.05555666  0.19331573
   0.61110999  0.22222334  0.19331573
   0.44444334  0.55555667  0.19331573
   0.44444333  0.38889000  0.19331573
   0.61110999  0.38889000  0.19331573
   0.61110999  0.55555667  0.19331573
   0.44444334  0.88889001  0.19331573
   0.44444333  0.72222333  0.19331573
   0.61110999  0.72222333  0.19331573
   0.61110999  0.88889001  0.19331573
   0.77777667  0.22222334  0.19331573
   0.77777667  0.05555666  0.19331573
   0.94444333  0.05555666  0.19331573
   0.94444333  0.22222334  0.19331573
   0.77777667  0.55555667  0.19331573
   0.77777667  0.38889000  0.19331573
   0.94444333  0.38889000  0.19331573
   0.94444333  0.55555667  0.19331573
   0.77777667  0.88889001  0.19331573
   0.77777667  0.72222333  0.19331573
   0.94444333  0.72222333  0.19331573
   0.94444333  0.88889001  0.19331573
   0.00000000  0.00000000  0.29280224
   0.00000000  0.16666667  0.29280224
   0.16666667  0.16666667  0.29280224
   0.16666667  0.00000000  0.29280224
   0.00000000  0.33333333  0.29280224
   0.00000000  0.50000000  0.29280224
   0.16666667  0.50000000  0.29280224
   0.16666667  0.33333333  0.29280224
   0.00000000  0.66666667  0.29280224
   0.00000000  0.83333333  0.29280224
   0.16666667  0.83333333  0.29280224
   0.16666667  0.66666667  0.29280224
   0.33333333  0.00000000  0.29280224
   0.33333333  0.16666667  0.29280224
   0.50000000  0.16666667  0.29280224
   0.50000000  0.00000000  0.29280224
   0.33333333  0.33333333  0.29280224
   0.33333333  0.50000000  0.29280224
   0.50000000  0.50000000  0.29280224
   0.50000000  0.33333333  0.29280224
   0.33333333  0.66666667  0.29280224
   0.33333333  0.83333333  0.29280224
   0.50000000  0.83333333  0.29280224
   0.50000000  0.66666667  0.29280224
   0.66666667  0.00000000  0.29280224
   0.66666667  0.16666667  0.29280224
   0.83333333  0.16666667  0.29280224
   0.83333333  0.00000000  0.29280224
   0.66666667  0.33333333  0.29280224
   0.66666667  0.50000000  0.29280224
   0.83333333  0.50000000  0.29280224
   0.83333333  0.33333333  0.29280224
   0.66666667  0.66666667  0.29280224
   0.66666667  0.83333333  0.29280224
   0.83333333  0.83333333  0.29280224
   0.83333333  0.66666667  0.29280224
   0.42213004  0.29997158  0.40540487
   0.58975751  0.34270005  0.39288282
   0.68427071  0.68390967  0.39784077
   0.56991415  0.63450415  0.40130639
   0.52257260  0.69329672  0.40578234
   0.41712462  0.65024177  0.40939480
   0.35446585  0.54373206  0.40814647
   0.39974543  0.48257466  0.40360565
   0.50584863  0.52715115  0.40041062
   0.51200193  0.36454166  0.39878303
   0.55751753  0.23596515  0.39827666
   0.55394984  0.46833173  0.39582488
   0.24894926  0.49865951  0.41405406
   0.57047045  0.77621850  0.40660289
   0.38333891  0.69900768  0.41319639
   0.35275024  0.39986655  0.40297219
   0.63090338  0.50740793  0.39130511
   0.21895507  0.54255453  0.40091660
   0.20759942  0.42590619  0.39825528
   0.71610577  0.66140534  0.43748025
   0.71965886  0.76719198  0.39957123
   0.71032280  0.66534685  0.35373015
   0.62467026  0.23002380  0.38636779
   0.53234689  0.20902167  0.44668686
   0.49462987  0.19046912  0.36557062
 
 position of ions in cartesian coordinates  (Angst):
   0.00000000  0.00000000  0.00000000
  -1.26232505  2.18641112  0.00000000
   1.26232505  2.18641112  0.00000000
   2.52465010  0.00000000  0.00000000
  -2.52465010  4.37282224  0.00000000
  -3.78697515  6.55923336  0.00000000
  -1.26232505  6.55923336  0.00000000
  -0.00000000  4.37282224  0.00000000
  -5.04930019  8.74564448  0.00000000
  -6.31162524 10.93205560  0.00000000
  -3.78697515 10.93205560  0.00000000
  -2.52465010  8.74564448  0.00000000
   5.04930019  0.00000000  0.00000000
   3.78697515  2.18641112  0.00000000
   6.31162524  2.18641112  0.00000000
   7.57395029  0.00000000  0.00000000
   2.52465010  4.37282224  0.00000000
   1.26232505  6.55923336  0.00000000
   3.78697515  6.55923336  0.00000000
   5.04930019  4.37282224  0.00000000
   0.00000000  8.74564448  0.00000000
  -1.26232505 10.93205560  0.00000000
   1.26232505 10.93205560  0.00000000
   2.52465010  8.74564448  0.00000000
  10.09860039  0.00000000  0.00000000
   8.83627534  2.18641112  0.00000000
  11.36092544  2.18641112  0.00000000
  12.62325048  0.00000000  0.00000000
   7.57395029  4.37282224  0.00000000
   6.31162524  6.55923336  0.00000000
   8.83627534  6.55923336  0.00000000
  10.09860039  4.37282224  0.00000000
   5.04930019  8.74564448  0.00000000
   3.78697515 10.93205560  0.00000000
   6.31162524 10.93205560  0.00000000
   7.57395029  8.74564448  0.00000000
   2.52467545  1.45759286  2.06141502
   1.26235048  3.64400385  2.06141502
  -1.26229977  3.64400385  2.06141502
   0.00002521  1.45759286  2.06141502
   0.00002536  5.83041510  2.06141502
  -1.26229962  8.01682609  2.06141502
  -3.78694986  8.01682609  2.06141502
  -2.52462489  5.83041510  2.06141502
  -2.52462474 10.20323734  2.06141502
  -3.78694972 12.38964833  2.06141502
  -6.31159996 12.38964833  2.06141502
  -5.04927499 10.20323734  2.06141502
   7.57397565  1.45759286  2.06141502
   6.31165067  3.64400385  2.06141502
   3.78700043  3.64400385  2.06141502
   5.04932540  1.45759286  2.06141502
   5.04932555  5.83041510  2.06141502
   3.78700057  8.01682609  2.06141502
   1.26235033  8.01682609  2.06141502
   2.52467531  5.83041510  2.06141502
   2.52467545 10.20323734  2.06141502
   1.26235048 12.38964833  2.06141502
  -1.26229977 12.38964833  2.06141502
   0.00002521 10.20323734  2.06141502
  12.62327584  1.45759286  2.06141502
  11.36095086  3.64400385  2.06141502
   8.83630062  3.64400385  2.06141502
  10.09862560  1.45759286  2.06141502
  10.09862574  5.83041510  2.06141502
   8.83630077  8.01682609  2.06141502
   6.31165052  8.01682609  2.06141502
   7.57397550  5.83041510  2.06141502
   7.57397565 10.20323734  2.06141502
   6.31165067 12.38964833  2.06141502
   3.78700043 12.38964833  2.06141502
   5.04932540 10.20323734  2.06141502
  -0.00002528  2.91522951  4.09520041
   1.26229984  0.72881826  4.09520041
   3.78694979  0.72881826  4.09520041
   2.52462467  2.91522951  4.09520041
  -2.52467538  7.28805175  4.09520041
  -1.26235026  5.10164050  4.09520041
   1.26229969  5.10164050  4.09520041
  -0.00002543  7.28805175  4.09520041
  -5.04932548 11.66087399  4.09520041
  -3.78700035  9.47446274  4.09520041
  -1.26235040  9.47446274  4.09520041
  -2.52467553 11.66087399  4.09520041
   5.04927491  2.91522951  4.09520041
   6.31160003  0.72881826  4.09520041
   8.83624998  0.72881826  4.09520041
   7.57392486  2.91522951  4.09520041
   2.52462482  7.28805175  4.09520041
   3.78694994  5.10164050  4.09520041
   6.31159989  5.10164050  4.09520041
   5.04927477  7.28805175  4.09520041
  -0.00002528 11.66087399  4.09520041
   1.26229984  9.47446274  4.09520041
   3.78694979  9.47446274  4.09520041
   2.52462467 11.66087399  4.09520041
  10.09857511  2.91522951  4.09520041
  11.36090023  0.72881826  4.09520041
  13.88555018  0.72881826  4.09520041
  12.62322506  2.91522951  4.09520041
   7.57392501  7.28805175  4.09520041
   8.83625013  5.10164050  4.09520041
  11.36090008  5.10164050  4.09520041
  10.09857496  7.28805175  4.09520041
   5.04927491 11.66087399  4.09520041
   6.31160003  9.47446274  4.09520041
   8.83624998  9.47446274  4.09520041
   7.57392486 11.66087399  4.09520041
   0.00000000  0.00000000  6.20272268
  -1.26232505  2.18641112  6.20272268
   1.26232505  2.18641112  6.20272268
   2.52465010  0.00000000  6.20272268
  -2.52465010  4.37282224  6.20272268
  -3.78697515  6.55923336  6.20272268
  -1.26232505  6.55923336  6.20272268
  -0.00000000  4.37282224  6.20272268
  -5.04930019  8.74564448  6.20272268
  -6.31162524 10.93205560  6.20272268
  -3.78697515 10.93205560  6.20272268
  -2.52465010  8.74564448  6.20272268
   5.04930019  0.00000000  6.20272268
   3.78697515  2.18641112  6.20272268
   6.31162524  2.18641112  6.20272268
   7.57395029  0.00000000  6.20272268
   2.52465010  4.37282224  6.20272268
   1.26232505  6.55923336  6.20272268
   3.78697515  6.55923336  6.20272268
   5.04930019  4.37282224  6.20272268
   0.00000000  8.74564448  6.20272268
  -1.26232505 10.93205560  6.20272268
   1.26232505 10.93205560  6.20272268
   2.52465010  8.74564448  6.20272268
  10.09860039  0.00000000  6.20272268
   8.83627534  2.18641112  6.20272268
  11.36092544  2.18641112  6.20272268
  12.62325048  0.00000000  6.20272268
   7.57395029  4.37282224  6.20272268
   6.31162524  6.55923336  6.20272268
   8.83627534  6.55923336  6.20272268
  10.09860039  4.37282224  6.20272268
   5.04930019  8.74564448  6.20272268
   3.78697515 10.93205560  6.20272268
   6.31162524 10.93205560  6.20272268
   7.57395029  8.74564448  6.20272268
   4.12241404  3.93516715  8.58809677
   6.33799496  4.49569922  8.32282958
   5.18536678  8.97184625  8.42785879
   3.82729991  8.32372159  8.50127447
   2.66488285  9.09498994  8.59609314
   1.39366347  8.53017504  8.67261954
   1.25121386  7.13293091  8.64617486
   2.40030748  6.33063964  8.54998206
   3.66992816  6.91541482  8.48229848
   4.99473394  4.78222768  8.44781965
   6.65803182  3.09550092  8.43709275
   4.84405588  6.14379419  8.38515422
  -0.00576373  6.54164814  8.77132126
   2.76238929 10.18279653  8.61347562
   0.51253030  9.16990896  8.75315243
   2.31485612  5.24563605  8.53656289
   5.71377925  6.65641408  8.28940750
  -0.79257139  7.11748351  8.49301734
  -0.08109704  5.58723622  8.43663989
   5.83804789  8.67662390  9.26758159
   5.09064700 10.06438248  8.46451689
   5.72059510  8.72833056  7.49341945
   7.72025418  3.01755957  8.18481535
   6.48081804  2.74204383  9.46261453
   6.05000045  2.49866276  7.74424805
 


--------------------------------------------------------------------------------------------------------


 k-point  1 :   0.0000 0.0000 0.0000  plane waves:   91267
 k-point  2 :   0.3333-0.0000 0.0000  plane waves:   91252
 k-point  3 :   0.0000 0.3333 0.0000  plane waves:   91252
 k-point  4 :   0.3333 0.3333 0.0000  plane waves:   91296
 k-point  5 :  -0.3333 0.3333 0.0000  plane waves:   91252

 maximum and minimum number of plane-waves per node :     91296    91252

 maximum number of plane-waves:     91296
 maximum index in each direction: 
   IXMAX=   26   IYMAX=   26   IZMAX=   36
   IXMIN=  -26   IYMIN=  -26   IZMIN=  -36


 serial   3D FFT for wavefunctions
 parallel 3D FFT for charge:
    minimum data exchange during FFTs selected (reduces bandwidth)


 total amount of memory used by VASP MPI-rank0   291973. kBytes
=======================================================================

   base      :      30000. kBytes
   nonlr-proj:      53398. kBytes
   fftplans  :       7568. kBytes
   grid      :      40325. kBytes
   one-center:       2628. kBytes
   wavefun   :     158054. kBytes
 
     INWAV:  cpu time    0.0000: real time    0.0004
 Broyden mixing: mesh for mixing (old mesh)
   NGX = 53   NGY = 53   NGZ = 73
  (NGX  =160   NGY  =160   NGZ  =224)
  gives a total of 205057 points

 initial charge density was supplied:
 charge density of overlapping atoms calculated
 number of electron    1654.0000000 magnetization 
 keeping initial charge density in first step


--------------------------------------------------------------------------------------------------------


 Maximum index for non-local projection operator         2025
 Maximum index for augmentation-charges          319 (set IRDMAX)


--------------------------------------------------------------------------------------------------------


 First call to EWALD:  gamma=   0.110
 Maximum number of real-space cells 3x 3x 2
 Maximum number of reciprocal cells 3x 3x 3

    FEWALD:  cpu time    0.0066: real time    0.0066


--------------------------------------- Iteration      1(   1)  ---------------------------------------


    POTLOK:  cpu time    0.1208: real time    0.1445
    SETDIJ:  cpu time    0.0128: real time    0.0209
     EDDAV:  cpu time   51.0025: real time   51.0839
       DOS:  cpu time    0.0015: real time    0.0038
    --------------------------------------------
      LOOP:  cpu time   51.1377: real time   51.2532

 eigenvalue-minimisations  : 10080
 total energy-change (2. order) : 0.1619160E+05  (-0.6478055E+05)
 number of electron    1654.0000000 magnetization 
 augmentation part     1654.0000000 magnetization 

 DIPCOR: dipole corrections for dipol
 direction  3 min pos   146,
 dipolmoment           0.000000      0.000000     -0.001929 electrons x Angstroem
 Tr[quadrupol]    -66614.606899

 energy correction for charged system         0.000000 eV
 dipol+quadrupol energy correction           -0.000000 eV
 added-field ion interaction          0.027364 eV  (added to PSCEN)


 Free energy of the ion-electron system (eV)
  ---------------------------------------------------
  alpha Z        PSCENC =      3880.88005924
  Ewald energy   TEWEN  =    613225.90868438
  -Hartree energ DENC   =   -809751.81075963
  -exchange      EXHF   =         0.00000000
  -V(xc)+E(xc)   XCENC  =      6819.70158186
  PAW double counting   =    178967.03018613  -194219.46092503
  entropy T*S    EENTRO =        -0.01547261
  eigenvalues    EBANDS =     14101.68831398
  atomic energy  EATOM  =    203167.67369484
  Solvation  Ediel_sol  =         0.00000000
  ---------------------------------------------------
  free energy    TOTEN  =     16191.59536314 eV

  energy without entropy =    16191.61083575  energy(sigma->0) =    16191.60309945


--------------------------------------------------------------------------------------------------------




--------------------------------------- Iteration      1(   2)  ---------------------------------------


     EDDAV:  cpu time   50.9001: real time   50.9381
       DOS:  cpu time    0.0011: real time    0.0011
    --------------------------------------------
      LOOP:  cpu time   50.9012: real time   50.9392

 eigenvalue-minimisations  : 10080
 total energy-change (2. order) :-0.1412087E+05  (-0.1359439E+05)
 number of electron    1654.0000000 magnetization 
 augmentation part     1654.0000000 magnetization 

 DIPCOR: dipole corrections for dipol
 direction  3 min pos   146,
 dipolmoment           0.000000      0.000000     -0.001929 electrons x Angstroem
 Tr[quadrupol]    -66614.606899

 energy correction for charged system         0.000000 eV
 dipol+quadrupol energy correction           -0.000000 eV
 added-field ion interaction          0.027364 eV  (added to PSCEN)


 Free energy of the ion-electron system (eV)
  ---------------------------------------------------
  alpha Z        PSCENC =      3880.88005924
  Ewald energy   TEWEN  =    613225.90868438
  -Hartree energ DENC   =   -809751.81075963
  -exchange      EXHF   =         0.00000000
  -V(xc)+E(xc)   XCENC  =      6819.70158186
  PAW double counting   =    178967.03018613  -194219.46092503
  entropy T*S    EENTRO =        -0.02710537
  eigenvalues    EBANDS =       -19.16874999
  atomic energy  EATOM  =    203167.67369484
  Solvation  Ediel_sol  =         0.00000000
  ---------------------------------------------------
  free energy    TOTEN  =      2070.72666641 eV

  energy without entropy =     2070.75377178  energy(sigma->0) =     2070.74021910


--------------------------------------------------------------------------------------------------------




--------------------------------------- Iteration      1(   3)  ---------------------------------------


     EDDAV:  cpu time   57.9057: real time   57.9469
       DOS:  cpu time    0.0011: real time    0.0011
    --------------------------------------------
      LOOP:  cpu time   57.9068: real time   57.9480

 eigenvalue-minimisations  : 11808
 total energy-change (2. order) :-0.2557583E+04  (-0.2340450E+04)
 number of electron    1654.0000000 magnetization 
 augmentation part     1654.0000000 magnetization 

 DIPCOR: dipole corrections for dipol
 direction  3 min pos   146,
 dipolmoment           0.000000      0.000000     -0.001929 electrons x Angstroem
 Tr[quadrupol]    -66614.606899

 energy correction for charged system         0.000000 eV
 dipol+quadrupol energy correction           -0.000000 eV
 added-field ion interaction          0.027364 eV  (added to PSCEN)


 Free energy of the ion-electron system (eV)
  ---------------------------------------------------
  alpha Z        PSCENC =      3880.88005924
  Ewald energy   TEWEN  =    613225.90868438
  -Hartree energ DENC   =   -809751.81075963
  -exchange      EXHF   =         0.00000000
  -V(xc)+E(xc)   XCENC  =      6819.70158186
  PAW double counting   =    178967.03018613  -194219.46092503
  entropy T*S    EENTRO =        -0.04148677
  eigenvalues    EBANDS =     -2576.73721980
  atomic energy  EATOM  =    203167.67369484
  Solvation  Ediel_sol  =         0.00000000
  ---------------------------------------------------
  free energy    TOTEN  =      -486.85618479 eV

  energy without entropy =     -486.81469802  energy(sigma->0) =     -486.83544140


--------------------------------------------------------------------------------------------------------




--------------------------------------- Iteration      1(   4)  ---------------------------------------


     EDDAV:  cpu time   84.7387: real time   84.7908
       DOS:  cpu time    0.0012: real time    0.0012
    --------------------------------------------
      LOOP:  cpu time   84.7398: real time   84.7919

 eigenvalue-minimisations  : 17472
 total energy-change (2. order) :-0.2914023E+03  (-0.2806290E+03)
 number of electron    1654.0000000 magnetization 
 augmentation part     1654.0000000 magnetization 

 DIPCOR: dipole corrections for dipol
 direction  3 min pos   146,
 dipolmoment           0.000000      0.000000     -0.001929 electrons x Angstroem
 Tr[quadrupol]    -66614.606899

 energy correction for charged system         0.000000 eV
 dipol+quadrupol energy correction           -0.000000 eV
 added-field ion interaction          0.027364 eV  (added to PSCEN)


 Free energy of the ion-electron system (eV)
  ---------------------------------------------------
  alpha Z        PSCENC =      3880.88005924
  Ewald energy   TEWEN  =    613225.90868438
  -Hartree energ DENC   =   -809751.81075963
  -exchange      EXHF   =         0.00000000
  -V(xc)+E(xc)   XCENC  =      6819.70158186
  PAW double counting   =    178967.03018613  -194219.46092503
  entropy T*S    EENTRO =        -0.04367836
  eigenvalues    EBANDS =     -2868.13736378
  atomic energy  EATOM  =    203167.67369484
  Solvation  Ediel_sol  =         0.00000000
  ---------------------------------------------------
  free energy    TOTEN  =      -778.25852037 eV

  energy without entropy =     -778.21484201  energy(sigma->0) =     -778.23668119


--------------------------------------------------------------------------------------------------------




--------------------------------------- Iteration      1(   5)  ---------------------------------------


     EDDAV:  cpu time   72.1482: real time   72.1960
       DOS:  cpu time    0.0011: real time    0.0011
    --------------------------------------------
      LOOP:  cpu time   72.1493: real time   72.1971

 eigenvalue-minimisations  : 15408
 total energy-change (2. order) :-0.1429627E+02  (-0.1400024E+02)
 number of electron    1654.0000000 magnetization 
 augmentation part     1654.0000000 magnetization 

 DIPCOR: dipole corrections for dipol
 direction  3 min pos   146,
 dipolmoment           0.000000      0.000000     -0.001929 electrons x Angstroem
 Tr[quadrupol]    -66614.606899

 energy correction for charged system         0.000000 eV
 dipol+quadrupol energy correction           -0.000000 eV
 added-field ion interaction          0.027364 eV  (added to PSCEN)


 Free energy of the ion-electron system (eV)
  ---------------------------------------------------
  alpha Z        PSCENC =      3880.88005924
  Ewald energy   TEWEN  =    613225.90868438
  -Hartree energ DENC   =   -809751.81075963
  -exchange      EXHF   =         0.00000000
  -V(xc)+E(xc)   XCENC  =      6819.70158186
  PAW double counting   =    178967.03018613  -194219.46092503
  entropy T*S    EENTRO =        -0.05098407
  eigenvalues    EBANDS =     -2882.42632422
  atomic energy  EATOM  =    203167.67369484
  Solvation  Ediel_sol  =         0.00000000
  ---------------------------------------------------
  free energy    TOTEN  =      -792.55478651 eV

  energy without entropy =     -792.50380244  energy(sigma->0) =     -792.52929448


--------------------------------------------------------------------------------------------------------




--------------------------------------- Iteration      1(   6)  ---------------------------------------


     EDDAV:  cpu time   72.8236: real time   72.8658
       DOS:  cpu time    0.0023: real time    0.0023
    --------------------------------------------
      LOOP:  cpu time   72.8259: real time   72.8681

 eigenvalue-minimisations  : 15360
 total energy-change (2. order) :-0.3740371E+00  (-0.3719405E+00)
 number of electron    1654.0000000 magnetization 
 augmentation part     1654.0000000 magnetization 

 DIPCOR: dipole corrections for dipol
 direction  3 min pos   146,
 dipolmoment           0.000000      0.000000     -0.001929 electrons x Angstroem
 Tr[quadrupol]    -66614.606899

 energy correction for charged system         0.000000 eV
 dipol+quadrupol energy correction           -0.000000 eV
 added-field ion interaction          0.027364 eV  (added to PSCEN)


 Free energy of the ion-electron system (eV)
  ---------------------------------------------------
  alpha Z        PSCENC =      3880.88005924
  Ewald energy   TEWEN  =    613225.90868438
  -Hartree energ DENC   =   -809751.81075963
  -exchange      EXHF   =         0.00000000
  -V(xc)+E(xc)   XCENC  =      6819.70158186
  PAW double counting   =    178967.03018613  -194219.46092503
  entropy T*S    EENTRO =        -0.05115794
  eigenvalues    EBANDS =     -2882.80018748
  atomic energy  EATOM  =    203167.67369484
  Solvation  Ediel_sol  =         0.00000000
  ---------------------------------------------------
  free energy    TOTEN  =      -792.92882365 eV

  energy without entropy =     -792.87766571  energy(sigma->0) =     -792.90324468


--------------------------------------------------------------------------------------------------------




--------------------------------------- Iteration      1(   7)  ---------------------------------------


     EDDAV:  cpu time   75.8234: real time   75.9970
       DOS:  cpu time    0.0011: real time    0.0011
    CHARGE:  cpu time    2.0955: real time    2.0970
    MIXING:  cpu time    0.0036: real time    0.0041
    --------------------------------------------
      LOOP:  cpu time   77.9238: real time   78.0993

 eigenvalue-minimisations  : 15600
 total energy-change (2. order) :-0.1088121E-01  (-0.1087161E-01)
 number of electron    1653.9999956 magnetization 
 augmentation part      937.1869515 magnetization 

 DIPCOR: dipole corrections for dipol
 direction  3 min pos   146,
 dipolmoment           0.000000      0.000000     -0.001929 electrons x Angstroem
 Tr[quadrupol]    -66614.606899

 energy correction for charged system         0.000000 eV
 dipol+quadrupol energy correction           -0.000000 eV
 added-field ion interaction          0.027364 eV  (added to PSCEN)


 Broyden mixing:
  rms(total) = 0.95058E+01    rms(broyden)= 0.95050E+01
  rms(prec ) = 0.10176E+02
  weight for this iteration     100.00

 Free energy of the ion-electron system (eV)
  ---------------------------------------------------
  alpha Z        PSCENC =      3880.88005924
  Ewald energy   TEWEN  =    613225.90868438
  -Hartree energ DENC   =   -809751.81075963
  -exchange      EXHF   =         0.00000000
  -V(xc)+E(xc)   XCENC  =      6819.70158186
  PAW double counting   =    178967.03018613  -194219.46092503
  entropy T*S    EENTRO =        -0.05116337
  eigenvalues    EBANDS =     -2882.81106327
  atomic energy  EATOM  =    203167.67369484
  Solvation  Ediel_sol  =         0.00000000
  ---------------------------------------------------
  free energy    TOTEN  =      -792.93970486 eV

  energy without entropy =     -792.88854149  energy(sigma->0) =     -792.91412317


--------------------------------------------------------------------------------------------------------




--------------------------------------- Iteration      1(   8)  ---------------------------------------


    POTLOK:  cpu time    0.1081: real time    0.1098
    SETDIJ:  cpu time    0.0125: real time    0.0125
    EDDIAG:  cpu time    9.9554: real time    9.9648
  RMM-DIIS:  cpu time   23.9767: real time   24.0157
    ORTHCH:  cpu time    3.3278: real time    3.3293
       DOS:  cpu time    0.0011: real time    0.0011
    CHARGE:  cpu time    2.0801: real time    2.0819
    MIXING:  cpu time    0.0037: real time    0.0111
    --------------------------------------------
      LOOP:  cpu time   39.4653: real time   39.5264

 eigenvalue-minimisations  : 10139
 total energy-change (2. order) : 0.5610358E+02  (-0.1589075E+03)
 number of electron    1653.9999962 magnetization 
 augmentation part     1061.9908496 magnetization 

 DIPCOR: dipole corrections for dipol
 direction  3 min pos   152,
 dipolmoment           0.000000      0.000000      2.131636 electrons x Angstroem
 Tr[quadrupol]    -66606.050243

 energy correction for charged system         0.000000 eV
 dipol+quadrupol energy correction           -0.098126 eV
 added-field ion interaction         56.169829 eV  (added to PSCEN)


 Broyden mixing:
  rms(total) = 0.55208E+01    rms(broyden)= 0.55193E+01
  rms(prec ) = 0.61989E+01
  weight for this iteration     100.00

 eigenvalues of (default mixing * dielectric matrix)
  average eigenvalue GAMMA=   0.6399
  0.6399

 Free energy of the ion-electron system (eV)
  ---------------------------------------------------
  alpha Z        PSCENC =      3936.92439767
  Ewald energy   TEWEN  =    613225.90868438
  -Hartree energ DENC   =   -805408.67592182
  -exchange      EXHF   =         0.00000000
  -V(xc)+E(xc)   XCENC  =      6628.25970400
  PAW double counting   =    182758.45752495  -197207.12924804
  entropy T*S    EENTRO =        -0.00807221
  eigenvalues    EBANDS =     -7838.24688807
  atomic energy  EATOM  =    203167.67369484
  Solvation  Ediel_sol  =         0.00000000
  ---------------------------------------------------
  free energy    TOTEN  =      -736.83612432 eV

  energy without entropy =     -736.82805210  energy(sigma->0) =     -736.83208821


--------------------------------------------------------------------------------------------------------




--------------------------------------- Iteration      1(   9)  ---------------------------------------


    POTLOK:  cpu time    0.1086: real time    0.1094
    SETDIJ:  cpu time    0.0124: real time    0.0124
    EDDIAG:  cpu time    9.9544: real time    9.9662
  RMM-DIIS:  cpu time   23.9817: real time   24.2816
    ORTHCH:  cpu time    3.3172: real time    3.3191
       DOS:  cpu time    0.0011: real time    0.0011
    CHARGE:  cpu time    2.0854: real time    2.0878
    MIXING:  cpu time    0.0033: real time    0.0033
    --------------------------------------------
      LOOP:  cpu time   39.4643: real time   39.7809

 eigenvalue-minimisations  : 10211
 total energy-change (2. order) : 0.5791903E+02  (-0.2924652E+02)
 number of electron    1653.9999984 magnetization 
 augmentation part     1009.4314829 magnetization 

 DIPCOR: dipole corrections for dipol
 direction  3 min pos   154,
 dipolmoment           0.000000      0.000000     -3.015460 electrons x Angstroem
 Tr[quadrupol]    -66618.869103

 energy correction for charged system         0.000000 eV
 dipol+quadrupol energy correction           -0.196366 eV
 added-field ion interaction       -120.203841 eV  (added to PSCEN)


 Broyden mixing:
  rms(total) = 0.21969E+01    rms(broyden)= 0.21961E+01
  rms(prec ) = 0.39922E+01
  weight for this iteration     100.00

 eigenvalues of (default mixing * dielectric matrix)
  average eigenvalue GAMMA=   0.5331
  0.6897  0.3765

 Free energy of the ion-electron system (eV)
  ---------------------------------------------------
  alpha Z        PSCENC =      3760.45248831
  Ewald energy   TEWEN  =    613225.90868438
  -Hartree energ DENC   =   -807454.00568348
  -exchange      EXHF   =         0.00000000
  -V(xc)+E(xc)   XCENC  =      6694.52497816
  PAW double counting   =    187233.31141788  -202392.59087092
  entropy T*S    EENTRO =        -0.01132401
  eigenvalues    EBANDS =     -4914.18047904
  atomic energy  EATOM  =    203167.67369484
  Solvation  Ediel_sol  =         0.00000000
  ---------------------------------------------------
  free energy    TOTEN  =      -678.91709388 eV

  energy without entropy =     -678.90576987  energy(sigma->0) =     -678.91143188


--------------------------------------------------------------------------------------------------------




--------------------------------------- Iteration      1(  10)  ---------------------------------------


    POTLOK:  cpu time    0.1092: real time    0.1096
    SETDIJ:  cpu time    0.0123: real time    0.0123
    EDDIAG:  cpu time    9.9193: real time   10.0226
  RMM-DIIS:  cpu time   24.4507: real time   24.4714
    ORTHCH:  cpu time    3.3060: real time    3.3088
       DOS:  cpu time    0.0011: real time    0.0011
    CHARGE:  cpu time    1.9290: real time    2.1781
    MIXING:  cpu time    0.0033: real time    0.0033
    --------------------------------------------
      LOOP:  cpu time   39.7310: real time   40.1072

 eigenvalue-minimisations  : 10302
 total energy-change (2. order) : 0.1947634E+02  (-0.1122743E+01)
 number of electron    1653.9999955 magnetization 
 augmentation part     1012.7493124 magnetization 

 DIPCOR: dipole corrections for dipol
 direction  3 min pos   158,
 dipolmoment           0.000000      0.000000      0.339700 electrons x Angstroem
 Tr[quadrupol]    -66625.523669

 energy correction for charged system         0.000000 eV
 dipol+quadrupol energy correction           -0.002492 eV
 added-field ion interaction         22.721325 eV  (added to PSCEN)


 Broyden mixing:
  rms(total) = 0.12286E+01    rms(broyden)= 0.12283E+01
  rms(prec ) = 0.16065E+01
  weight for this iteration     100.00

 eigenvalues of (default mixing * dielectric matrix)
  average eigenvalue GAMMA=   0.8096
  1.6434  0.6107  0.1747

 Free energy of the ion-electron system (eV)
  ---------------------------------------------------
  alpha Z        PSCENC =      3903.57152851
  Ewald energy   TEWEN  =    613225.90868438
  -Hartree energ DENC   =   -807519.76305203
  -exchange      EXHF   =         0.00000000
  -V(xc)+E(xc)   XCENC  =      6693.32635682
  PAW double counting   =    188217.94243174  -203438.23031447
  entropy T*S    EENTRO =        -0.02022521
  eigenvalues    EBANDS =     -4909.84986047
  atomic energy  EATOM  =    203167.67369484
  Solvation  Ediel_sol  =         0.00000000
  ---------------------------------------------------
  free energy    TOTEN  =      -659.44075590 eV

  energy without entropy =     -659.42053070  energy(sigma->0) =     -659.43064330


--------------------------------------------------------------------------------------------------------




--------------------------------------- Iteration      1(  11)  ---------------------------------------


    POTLOK:  cpu time    0.1082: real time    0.1085
    SETDIJ:  cpu time    0.0124: real time    0.0124
[...]
    --------------------------------------------
      LOOP:  cpu time   31.7963: real time   31.8106

 eigenvalue-minimisations  :  6701
 total energy-change (2. order) :-0.7289898E-05  (-0.8554627E-05)
 number of electron    1653.9999238 magnetization 
 augmentation part     1012.9796863 magnetization 

 DIPCOR: dipole corrections for dipol
 direction  3 min pos   154,
 dipolmoment           0.000000      0.000000     -0.486375 electrons x Angstroem
 Tr[quadrupol]    -66637.806476

 energy correction for charged system         0.000000 eV
 dipol+quadrupol energy correction           -0.005109 eV
 added-field ion interaction        -17.439437 eV  (added to PSCEN)


 eigenvalues of (default mixing * dielectric matrix)
  average eigenvalue GAMMA=   1.2172
  1.2172

  free energy =  -0.659512887729E+03  energy without entropy=  -0.659462355652E+03


--------------------------------------------------------------------------------------------------------




--------------------------------------- Iteration    259(   3)  ---------------------------------------


    POTLOK:  cpu time    0.1087: real time    0.1095
    SETDIJ:  cpu time    0.0124: real time    0.0124
    EDDIAG:  cpu time    9.9332: real time    9.9382
  RMM-DIIS:  cpu time   14.5943: real time   14.6045
    ORTHCH:  cpu time    5.2964: real time    5.3346
       DOS:  cpu time    0.0119: real time    0.0119
    CHARGE:  cpu time    2.1804: real time    2.2134
    MIXING:  cpu time    0.0100: real time    0.0100
    --------------------------------------------
      LOOP:  cpu time   32.1474: real time   32.2345

 eigenvalue-minimisations  :  5796
 total energy-change (2. order) :-0.4258414E-05  (-0.1153476E-05)
 number of electron    1653.9999238 magnetization 
 augmentation part     1012.9788820 magnetization 

 DIPCOR: dipole corrections for dipol
 direction  3 min pos   154,
 dipolmoment           0.000000      0.000000     -0.487798 electrons x Angstroem
 Tr[quadrupol]    -66637.804423

 energy correction for charged system         0.000000 eV
 dipol+quadrupol energy correction           -0.005139 eV
 added-field ion interaction        -17.490456 eV  (added to PSCEN)


 eigenvalues of (default mixing * dielectric matrix)
  average eigenvalue GAMMA=   0.8759
  1.4674  0.2844

  free energy =  -0.659512891987E+03  energy without entropy=  -0.659462359787E+03


--------------------------------------------------------------------------------------------------------




--------------------------------------- Iteration    259(   4)  ---------------------------------------


    POTLOK:  cpu time    0.1804: real time    0.1817
    SETDIJ:  cpu time    0.0301: real time    0.0301
    EDDIAG:  cpu time   10.2987: real time   10.3042
  RMM-DIIS:  cpu time   13.7707: real time   13.7773
    ORTHCH:  cpu time    3.2820: real time    3.2831
       DOS:  cpu time    0.0011: real time    0.0011
    CHARGE:  cpu time    2.1088: real time    2.1096
    MIXING:  cpu time    0.0034: real time    0.0034
    --------------------------------------------
      LOOP:  cpu time   29.6754: real time   29.6906

 eigenvalue-minimisations  :  5608
 total energy-change (2. order) : 0.3691122E-05  (-0.4177670E-06)
 number of electron    1653.9999238 magnetization 
 augmentation part     1012.9792114 magnetization 

 DIPCOR: dipole corrections for dipol
 direction  3 min pos   154,
 dipolmoment           0.000000      0.000000     -0.486286 electrons x Angstroem
 Tr[quadrupol]    -66637.806529

 energy correction for charged system         0.000000 eV
 dipol+quadrupol energy correction           -0.005107 eV
 added-field ion interaction        -17.436274 eV  (added to PSCEN)


 eigenvalues of (default mixing * dielectric matrix)
  average eigenvalue GAMMA=   0.9206
  1.8614  0.7092  0.1913

  free energy =  -0.659512888296E+03  energy without entropy=  -0.659462362851E+03


--------------------------------------------------------------------------------------------------------




--------------------------------------- Iteration    259(   5)  ---------------------------------------


    POTLOK:  cpu time    0.1085: real time    0.1092
    SETDIJ:  cpu time    0.0124: real time    0.0124
    EDDIAG:  cpu time    9.9061: real time    9.9097
  RMM-DIIS:  cpu time   13.5630: real time   13.5685
    ORTHCH:  cpu time    3.2827: real time    3.2837
       DOS:  cpu time    0.0011: real time    0.0011
    --------------------------------------------
      LOOP:  cpu time   26.8738: real time   26.8845

 eigenvalue-minimisations  :  5508
 total energy-change (2. order) : 0.2467423E-06  (-0.2292351E-06)
 number of electron    1653.9999238 magnetization 
 augmentation part     1012.9792114 magnetization 

 DIPCOR: dipole corrections for dipol
 direction  3 min pos   154,
 dipolmoment           0.000000      0.000000     -0.486803 electrons x Angstroem
 Tr[quadrupol]    -66637.806086

 energy correction for charged system         0.000000 eV
 dipol+quadrupol energy correction           -0.005118 eV
 added-field ion interaction        -17.454780 eV  (added to PSCEN)


  free energy =  -0.659512888049E+03  energy without entropy=  -0.659462352309E+03


--------------------------------------------------------------------------------------------------------




------------------------ aborting loop because EDIFF is reached ----------------------------------------


    CHARGE:  cpu time    2.1013: real time    2.1021
    FORLOC:  cpu time    0.0878: real time    0.0879
    FORNL :  cpu time    8.2954: real time    8.2982
    STRESS:  cpu time   24.6824: real time   24.6923
    FORCOR:  cpu time    0.1629: real time    0.1629
    FORHAR:  cpu time    0.1058: real time    0.1057
    MIXING:  cpu time    0.0038: real time    0.0038
    OFIELD:  cpu time    0.0001: real time    0.0001

  Number of pair interactions contributing to vdW energy:  899583
  Edisp (eV):  -12.61343
    FORVDW:  cpu time    0.1278: real time    0.1278

  FORCE on cell =-STRESS in cart. coord.  units (eV):
  Direction    XX          YY          ZZ          XY          YZ          ZX
  --------------------------------------------------------------------------------------
  Alpha Z  3880.85270  3880.85270  3880.85270
  Ewald  693924.13001693859.26323************  -752.79298  -279.16254   506.98563
  Hartree747670.29081747654.51323************  -705.83451  -206.22575   351.74021
  E(xc)   -9527.33498 -9527.48915 -9551.10390     0.03199    -0.29563     0.65828
  Local  ************************************  1463.05489   478.80295  -842.77794
  n-local -3181.01686 -3180.00029 -3272.16082    -1.90334    -0.30737     0.30740
  augment 13623.97474 13624.35753 13693.66413    -0.17127     0.09233    -0.38156
  Kinetic 14012.34020 14010.32636 14239.39797    -2.60068     6.86916   -16.37053
  Fock        0.00000     0.00000     0.00000     0.00000     0.00000     0.00000
  vdW       -16.60995   -16.52772   -13.37626    -0.01587     0.01942    -0.01213
  -------------------------------------------------------------------------------------
  Total      10.93282    11.46269    -4.39176    -0.23176    -0.20743     0.14936
  in kB       4.16102     4.36268    -1.67150    -0.08821    -0.07895     0.05685
  external pressure =        2.28 kB  Pullay stress =        0.00 kB



--------------------------------------------------------------------------------------------------------



  FREE ENERGIE OF THE ION-ELECTRON SYSTEM (eV)
  ---------------------------------------------------
  free  energy   TOTEN  =      -672.12632299 eV

  energy  without entropy=     -672.07578725  energy(sigma->0) =     -672.10105512
 
 d Force = 0.5568865E-05[-0.333E-05, 0.145E-04]  d Energy = 0.3406095E-05 0.216E-05
 d Force = 0.1324846E+01[ 0.132E+01, 0.132E+01]  d Ewald  = 0.1324846E+01-0.271E-06


--------------------------------------------------------------------------------------------------------


    POTLOK:  cpu time    0.1251: real time    0.1255


--------------------------------------------------------------------------------------------------------




--------------------------------------------------------------------------------------------------------


    WAVPRE:  cpu time    0.0844: real time    0.0857
    FEWALD:  cpu time    0.0047: real time    0.0047
    ORTHCH:  cpu time    6.0000: real time    6.0022
     LOOP+:  cpu time  218.3308: real time  218.5014


--------------------------------------- Iteration    260(   1)  ---------------------------------------


    POTLOK:  cpu time    0.1101: real time    0.1106
    SETDIJ:  cpu time    0.0125: real time    0.0125
     EDDAV:  cpu time   52.2652: real time   52.2852
       DOS:  cpu time    0.0011: real time    0.0011
    CHARGE:  cpu time    2.1062: real time    2.1071
    MIXING:  cpu time    0.0029: real time    0.0029
    --------------------------------------------
      LOOP:  cpu time   54.4981: real time   54.5195

 eigenvalue-minimisations  : 10368
 total energy-change (2. order) :-0.2028904E-04  (-0.4963052E-03)
 number of electron    1653.9999238 magnetization 
 augmentation part     1012.9797427 magnetization 

 DIPCOR: dipole corrections for dipol
 direction  3 min pos   154,
 dipolmoment           0.000000      0.000000     -0.486625 electrons x Angstroem
 Tr[quadrupol]    -66637.751644

 energy correction for charged system         0.000000 eV
 dipol+quadrupol energy correction           -0.005114 eV
 added-field ion interaction        -17.448238 eV  (added to PSCEN)


  free energy =  -0.659512908585E+03  energy without entropy=  -0.659462379303E+03


--------------------------------------------------------------------------------------------------------




--------------------------------------- Iteration    260(   2)  ---------------------------------------


    POTLOK:  cpu time    0.1098: real time    0.1101
    SETDIJ:  cpu time    0.0126: real time    0.0126
    EDDIAG:  cpu time   10.0534: real time   10.0575
  RMM-DIIS:  cpu time   17.0443: real time   17.0520
    ORTHCH:  cpu time    3.2840: real time    3.2862
       DOS:  cpu time    0.0012: real time    0.0012
    CHARGE:  cpu time    2.1068: real time    2.1078
    MIXING:  cpu time    0.0032: real time    0.0032
    --------------------------------------------
      LOOP:  cpu time   32.6152: real time   32.6305

 eigenvalue-minimisations  :  6969
 total energy-change (2. order) :-0.8507981E-05  (-0.1096732E-04)
 number of electron    1653.9999238 magnetization 
 augmentation part     1012.9788621 magnetization 

 DIPCOR: dipole corrections for dipol
 direction  3 min pos   154,
 dipolmoment           0.000000      0.000000     -0.486888 electrons x Angstroem
 Tr[quadrupol]    -66637.751700

 energy correction for charged system         0.000000 eV
 dipol+quadrupol energy correction           -0.005119 eV
 added-field ion interaction        -17.457687 eV  (added to PSCEN)


 eigenvalues of (default mixing * dielectric matrix)
  average eigenvalue GAMMA=   1.3634
  1.3634

  free energy =  -0.659512917093E+03  energy without entropy=  -0.659462382777E+03


--------------------------------------------------------------------------------------------------------




--------------------------------------- Iteration    260(   3)  ---------------------------------------


    POTLOK:  cpu time    0.1100: real time    0.1105
    SETDIJ:  cpu time    0.0126: real time    0.0126
    EDDIAG:  cpu time   10.0289: real time   10.0344
  RMM-DIIS:  cpu time   14.1970: real time   14.2023
    ORTHCH:  cpu time    3.2758: real time    3.2771
       DOS:  cpu time    0.0011: real time    0.0011
    CHARGE:  cpu time    2.1102: real time    2.1110
    MIXING:  cpu time    0.0033: real time    0.0033
    --------------------------------------------
      LOOP:  cpu time   29.7389: real time   29.7523

 eigenvalue-minimisations  :  5758
 total energy-change (2. order) :-0.1408800E-05  (-0.1340886E-05)
 number of electron    1653.9999238 magnetization 
 augmentation part     1012.9801801 magnetization 

 DIPCOR: dipole corrections for dipol
 direction  3 min pos   154,
 dipolmoment           0.000000      0.000000     -0.485959 electrons x Angstroem
 Tr[quadrupol]    -66637.753002

 energy correction for charged system         0.000000 eV
 dipol+quadrupol energy correction           -0.005100 eV
 added-field ion interaction        -17.424375 eV  (added to PSCEN)


 eigenvalues of (default mixing * dielectric matrix)
  average eigenvalue GAMMA=   1.1222
  1.6905  0.5539

  free energy =  -0.659512918502E+03  energy without entropy=  -0.659462389317E+03


--------------------------------------------------------------------------------------------------------




--------------------------------------- Iteration    260(   4)  ---------------------------------------


    POTLOK:  cpu time    0.1095: real time    0.1109
    SETDIJ:  cpu time    0.0126: real time    0.0126
    EDDIAG:  cpu time   10.0079: real time   10.0117
  RMM-DIIS:  cpu time   13.8379: real time   13.8434
    ORTHCH:  cpu time    3.2750: real time    3.2760
       DOS:  cpu time    0.0011: real time    0.0011
    CHARGE:  cpu time    2.1067: real time    2.1074
    MIXING:  cpu time    0.0034: real time    0.0034
    --------------------------------------------
      LOOP:  cpu time   29.3541: real time   29.3664

 eigenvalue-minimisations  :  5648
 total energy-change (2. order) :-0.2899033E-06  (-0.4436817E-06)
 number of electron    1653.9999238 magnetization 
 augmentation part     1012.9794377 magnetization 

 DIPCOR: dipole corrections for dipol
 direction  3 min pos   154,
 dipolmoment           0.000000      0.000000     -0.487483 electrons x Angstroem
 Tr[quadrupol]    -66637.750860

 energy correction for charged system         0.000000 eV
 dipol+quadrupol energy correction           -0.005132 eV
 added-field ion interaction        -17.479011 eV  (added to PSCEN)


 eigenvalues of (default mixing * dielectric matrix)
  average eigenvalue GAMMA=   1.0095
  2.0562  0.7678  0.2045

  free energy =  -0.659512918792E+03  energy without entropy=  -0.659462384499E+03


--------------------------------------------------------------------------------------------------------




--------------------------------------- Iteration    260(   5)  ---------------------------------------


    POTLOK:  cpu time    0.1103: real time    0.1109
    SETDIJ:  cpu time    0.0125: real time    0.0125
    EDDIAG:  cpu time   10.0418: real time   10.0457
  RMM-DIIS:  cpu time   13.5373: real time   13.5431
    ORTHCH:  cpu time    3.2921: real time    3.2931
       DOS:  cpu time    0.0011: real time    0.0011
    --------------------------------------------
      LOOP:  cpu time   26.9951: real time   27.0064

 eigenvalue-minimisations  :  5490
 total energy-change (2. order) : 0.1679407E-05  (-0.2791874E-06)
 number of electron    1653.9999238 magnetization 
 augmentation part     1012.9794377 magnetization 

 DIPCOR: dipole corrections for dipol
 direction  3 min pos   154,
 dipolmoment           0.000000      0.000000     -0.486572 electrons x Angstroem
 Tr[quadrupol]    -66637.752009

 energy correction for charged system         0.000000 eV
 dipol+quadrupol energy correction           -0.005113 eV
 added-field ion interaction        -17.446359 eV  (added to PSCEN)


  free energy =  -0.659512917113E+03  energy without entropy=  -0.659462388543E+03


--------------------------------------------------------------------------------------------------------




------------------------ aborting loop because EDIFF is reached ----------------------------------------


    CHARGE:  cpu time    2.1033: real time    2.1042
    FORLOC:  cpu time    0.0879: real time    0.0879
    FORNL :  cpu time    8.3720: real time    8.3754
    STRESS:  cpu time   24.7038: real time   24.7126
    FORCOR:  cpu time    0.1629: real time    0.1630
    FORHAR:  cpu time    0.1056: real time    0.1059
    MIXING:  cpu time    0.0037: real time    0.0037
    OFIELD:  cpu time    0.0001: real time    0.0001

  Number of pair interactions contributing to vdW energy:  899581
  Edisp (eV):  -12.61344
    FORVDW:  cpu time    0.1277: real time    0.1277

  FORCE on cell =-STRESS in cart. coord.  units (eV):
  Direction    XX          YY          ZZ          XY          YZ          ZX
  --------------------------------------------------------------------------------------
  Alpha Z  3880.85270  3880.85270  3880.85270
  Ewald  693922.06500693857.58216************  -752.77229  -279.20848   507.16499
  Hartree747668.51416747652.93455************  -705.79074  -206.32111   351.82917
  E(xc)   -9527.33461 -9527.48809 -9551.10312     0.03207    -0.29562     0.65849
  Local  ************************************  1462.98412   478.96081  -843.03434
  n-local -3181.04816 -3180.02897 -3272.19267    -1.90284    -0.30691     0.30580
  augment 13623.96955 13624.35165 13693.65971    -0.17103     0.09157    -0.38181
  Kinetic 14012.34302 14010.30715 14239.40020    -2.60182     6.86258   -16.37385
  Fock        0.00000     0.00000     0.00000     0.00000     0.00000     0.00000
  vdW       -16.60976   -16.52762   -13.37619    -0.01579     0.01937    -0.01214
  -------------------------------------------------------------------------------------
  Total      10.87114    11.41998    -4.43393    -0.23834    -0.19778     0.15631
  in kB       4.13754     4.34643    -1.68755    -0.09071    -0.07528     0.05949
  external pressure =        2.27 kB  Pullay stress =        0.00 kB



--------------------------------------------------------------------------------------------------------



  FREE ENERGIE OF THE ION-ELECTRON SYSTEM (eV)
  ---------------------------------------------------
  free  energy   TOTEN  =      -672.12635557 eV

  energy  without entropy=     -672.07582701  energy(sigma->0) =     -672.10109129
 
 d Force = 0.3461528E-04[ 0.189E-04, 0.504E-04]  d Energy = 0.3258430E-04 0.203E-05
 d Force = 0.1890530E+01[ 0.189E+01, 0.189E+01]  d Ewald  = 0.1890530E+01 0.214E-06


--------------------------------------------------------------------------------------------------------


    POTLOK:  cpu time    0.1252: real time    0.1255


--------------------------------------------------------------------------------------------------------


 Conjugate gradient step on ions:
 trial-energy change:   -0.000033  1 .order   -0.000035   -0.000050   -0.000019
  (g-gl).g = 0.518E-04      g.g   = 0.533E-04  gl.gl    = 0.950E-04
 g(Force)  = 0.533E-04   g(Stress)= 0.000E+00 ortho     =-0.692E-05
 gamma     =   0.54492
 trial     =   1.01796
 opt step  =   1.62656  (harmonic =   1.62656) maximal distance =0.00148674
 next E    =  -672.126363   (d E  =  -0.00004)


--------------------------------------------------------------------------------------------------------


  
 reached required accuracy - stopping structural energy minimisation
     LOOP+:  cpu time  209.0615: real time  209.1504
    4ORBIT:  cpu time    0.0000: real time    0.0000

 total amount of memory used by VASP MPI-rank0   291973. kBytes
=======================================================================

   base      :      30000. kBytes
   nonlr-proj:      53398. kBytes
   fftplans  :       7568. kBytes
   grid      :      40325. kBytes
   one-center:       2628. kBytes
   wavefun   :     158054. kBytes
 
  
  
 General timing and accounting informations for this job:
 ========================================================
  
                  Total CPU time used (sec):    82607.711
                            User time (sec):    82461.769
                          System time (sec):      145.941
                         Elapsed time (sec):    82767.287
  
                   Maximum memory used (kb):      655316.
                   Average memory used (kb):           0.
  
                          Minor page faults:      5057007
                          Major page faults:            0
                 Voluntary context switches:        20365
