 vasp.5.4.4.18Apr17-6-g9f103f2a35 (build Jun 30 2017 19:19:18) complex          
  
 executed on         MareNostrum4 date 2022.04.05  13:08:10
 running on   48 total cores
 distrk:  each k-point on   48 cores,    1 groups
 distr:  one band on NCORES_PER_BAND=   1 cores,   48 groups


--------------------------------------------------------------------------------------------------------


 INCAR:
 POTCAR:    PAW_PBE Cu 22Jun2005                  
 POTCAR:    PAW_PBE O 08Apr2002                   
 POTCAR:    PAW_PBE C 08Apr2002                   
 POTCAR:    PAW_PBE N 08Apr2002                   
 POTCAR:    PAW_PBE H 15Jun2001                   

 ----------------------------------------------------------------------------- 
|                                                                             |
|           W    W    AA    RRRRR   N    N  II  N    N   GGGG   !!!           |
|           W    W   A  A   R    R  NN   N  II  NN   N  G    G  !!!           |
|           W    W  A    A  R    R  N N  N  II  N N  N  G       !!!           |
|           W WW W  AAAAAA  RRRRR   N  N N  II  N  N N  G  GGG   !            |
|           WW  WW  A    A  R   R   N   NN  II  N   NN  G    G                |
|           W    W  A    A  R    R  N    N  II  N    N   GGGG   !!!           |
|                                                                             |
|      For optimal performance we recommend to set                            |
|        NCORE= 4 - approx SQRT( number of cores)                             |
|      NCORE specifies how many cores store one orbital (NPAR=cpu/NCORE).     |
|      This setting can  greatly improve the performance of VASP for DFT.     |
|      The default,   NCORE=1            might be grossly inefficient         |
|      on modern multi-core architectures or massively parallel machines.     |
|      Do your own testing !!!!                                               |
|      Unfortunately you need to use the default for GW and RPA calculations. |
|      (for HF NCORE is supported but not extensively tested yet)             |
|                                                                             |
 ----------------------------------------------------------------------------- 

 POTCAR:    PAW_PBE Cu 22Jun2005                  
  local pseudopotential read in
  partial core-charges read in
  partial kinetic energy density read in
  atomic valenz-charges read in
  non local Contribution for L=           2  read in
    real space projection operators read in
  non local Contribution for L=           2  read in
    real space projection operators read in
  non local Contribution for L=           0  read in
    real space projection operators read in
  non local Contribution for L=           0  read in
    real space projection operators read in
  non local Contribution for L=           1  read in
    real space projection operators read in
  non local Contribution for L=           1  read in
    real space projection operators read in
    PAW grid and wavefunctions read in
 
   number of l-projection  operators is LMAX  =           6
   number of lm-projection operators is LMMAX =          18
 
 POTCAR:    PAW_PBE O 08Apr2002                   
  local pseudopotential read in
  partial core-charges read in
  partial kinetic energy density read in
  kinetic energy density of atom read in
  atomic valenz-charges read in
  non local Contribution for L=           0  read in
    real space projection operators read in
  non local Contribution for L=           0  read in
    real space projection operators read in
  non local Contribution for L=           1  read in
    real space projection operators read in
  non local Contribution for L=           1  read in
    real space projection operators read in
    PAW grid and wavefunctions read in
 
   number of l-projection  operators is LMAX  =           4
   number of lm-projection operators is LMMAX =           8
 
 POTCAR:    PAW_PBE C 08Apr2002                   
  local pseudopotential read in
  partial core-charges read in
  partial kinetic energy density read in
  atomic valenz-charges read in
  non local Contribution for L=           0  read in
    real space projection operators read in
  non local Contribution for L=           0  read in
    real space projection operators read in
  non local Contribution for L=           1  read in
    real space projection operators read in
  non local Contribution for L=           1  read in
    real space projection operators read in
    PAW grid and wavefunctions read in
 
   number of l-projection  operators is LMAX  =           4
   number of lm-projection operators is LMMAX =           8
 
 POTCAR:    PAW_PBE N 08Apr2002                   
  local pseudopotential read in
  partial core-charges read in
  partial kinetic energy density read in
  atomic valenz-charges read in
  non local Contribution for L=           0  read in
    real space projection operators read in
  non local Contribution for L=           0  read in
    real space projection operators read in
  non local Contribution for L=           1  read in
    real space projection operators read in
  non local Contribution for L=           1  read in
    real space projection operators read in
    PAW grid and wavefunctions read in
 
   number of l-projection  operators is LMAX  =           4
   number of lm-projection operators is LMMAX =           8
 
 POTCAR:    PAW_PBE H 15Jun2001                   
  local pseudopotential read in
  atomic valenz-charges read in
  non local Contribution for L=           0  read in
    real space projection operators read in
  non local Contribution for L=           0  read in
    real space projection operators read in
  non local Contribution for L=           1  read in
    real space projection operators read in
    PAW grid and wavefunctions read in
 
   number of l-projection  operators is LMAX  =           3
   number of lm-projection operators is LMMAX =           5
 
 Optimization of the real space projectors (new method)

 maximal supplied QI-value         = 16.25
 optimisation between [QCUT,QGAM] = [ 10.73, 21.61] = [ 32.22,130.83] Ry 
 Optimized for a Real-space Cutoff    1.42 Angstroem

   l    n(q)    QCUT    max X(q) W(low)/X(q) W(high)/X(q)  e(spline) 
   2      8    10.726     4.610    0.15E-03    0.25E-03    0.14E-06
   2      8    10.726     8.522    0.25E-03    0.43E-03    0.27E-06
   0      9    10.726    51.609    0.94E-04    0.10E-03    0.12E-06
   0      9    10.726    27.747    0.85E-04    0.96E-04    0.11E-06
   1      9    10.726    20.408    0.25E-03    0.14E-03    0.12E-06
   1      9    10.726    13.425    0.22E-03    0.13E-03    0.11E-06
 Optimization of the real space projectors (new method)

 maximal supplied QI-value         = 24.76
 optimisation between [QCUT,QGAM] = [ 10.64, 21.54] = [ 31.73,129.89] Ry 
 Optimized for a Real-space Cutoff    1.23 Angstroem

   l    n(q)    QCUT    max X(q) W(low)/X(q) W(high)/X(q)  e(spline) 
   0      8    10.645    20.381    0.38E-03    0.60E-03    0.15E-06
   0      8    10.645    15.268    0.40E-03    0.65E-03    0.17E-06
   1      7    10.645     5.964    0.30E-03    0.63E-03    0.18E-06
   1      7    10.645     5.382    0.24E-03    0.53E-03    0.16E-06
 Optimization of the real space projectors (new method)

 maximal supplied QI-value         = 25.13
 optimisation between [QCUT,QGAM] = [ 10.81, 21.61] = [ 32.71,130.83] Ry 
 Optimized for a Real-space Cutoff    1.23 Angstroem

   l    n(q)    QCUT    max X(q) W(low)/X(q) W(high)/X(q)  e(spline) 
   0      8    10.807   115.676    0.36E-03    0.72E-03    0.24E-06
   0      8    10.807    87.132    0.35E-03    0.71E-03    0.24E-06
   1      7    10.807     4.429    0.19E-03    0.39E-03    0.11E-06
   1      7    10.807     2.733    0.14E-03    0.28E-03    0.13E-06
 Optimization of the real space projectors (new method)

 maximal supplied QI-value         = 25.13
 optimisation between [QCUT,QGAM] = [ 10.81, 21.61] = [ 32.71,130.83] Ry 
 Optimized for a Real-space Cutoff    1.23 Angstroem

   l    n(q)    QCUT    max X(q) W(low)/X(q) W(high)/X(q)  e(spline) 
   0      8    10.807    79.467    0.34E-03    0.68E-03    0.21E-06
   0      8    10.807    66.151    0.34E-03    0.67E-03    0.21E-06
   1      7    10.807    14.030    0.45E-03    0.13E-02    0.11E-05
   1      7    10.807     9.831    0.48E-03    0.13E-02    0.11E-05
 Optimization of the real space projectors (new method)

 maximal supplied QI-value         = 34.20
 optimisation between [QCUT,QGAM] = [ 10.60, 21.55] = [ 31.48,130.03] Ry 
 Optimized for a Real-space Cutoff    1.23 Angstroem

   l    n(q)    QCUT    max X(q) W(low)/X(q) W(high)/X(q)  e(spline) 
   0      8    10.603    19.460    0.37E-03    0.59E-03    0.23E-06
   0      8    10.603    12.209    0.35E-03    0.56E-03    0.22E-06
   1      7    10.603     4.655    0.70E-04    0.28E-03    0.29E-06
  PAW_PBE Cu 22Jun2005                  :
 energy of atom  1       EATOM=-1390.9808
 kinetic energy error for atom=    0.0097 (will be added to EATOM!!)
  PAW_PBE O 08Apr2002                   :
 energy of atom  2       EATOM= -432.3788
 kinetic energy error for atom=    0.0389 (will be added to EATOM!!)
  PAW_PBE C 08Apr2002                   :
 energy of atom  3       EATOM= -147.1560
 kinetic energy error for atom=    0.0116 (will be added to EATOM!!)
  PAW_PBE N 08Apr2002                   :
 energy of atom  4       EATOM= -264.5486
 kinetic energy error for atom=    0.0253 (will be added to EATOM!!)
  PAW_PBE H 15Jun2001                   :
 energy of atom  5       EATOM=  -12.4884
 kinetic energy error for atom=    0.0045 (will be added to EATOM!!)
 
 
 POSCAR: Cu  O  C  N  H                          
  positions in cartesian coordinates
  No initial velocities read in
 exchange correlation table for  LEXCH =        8
   RHO(1)=    0.500       N(1)  =     2000
   RHO(2)=  100.500       N(2)  =     4000
 


--------------------------------------------------------------------------------------------------------


 ion  position               nearest neighbor table
   1  0.000  0.000  0.000-   2 2.52   3 2.52   4 2.52  28 2.52  10 2.52  35 2.52  70 2.52  40 2.52
                            47 2.52
   2  0.000  0.167  0.000-   3 2.52   1 2.52   8 2.52  28 2.52   5 2.52  27 2.52  39 2.52  61 2.52
                            40 2.52
   3  0.167  0.167  0.000-   2 2.52   1 2.52   8 2.52  14 2.52   4 2.52  17 2.52  38 2.52  40 2.52
                            37 2.52
   4  0.167  0.000  0.000-  10 2.52  14 2.52   1 2.52  13 2.52   3 2.52  11 2.52  47 2.52  37 2.52
                            46 2.52
   5  0.000  0.333  0.000-   6 2.52   8 2.52  32 2.52   7 2.52  27 2.52   2 2.52  62 2.52  44 2.52
                            39 2.52
   6  0.000  0.500  0.000-  12 2.52   5 2.52   7 2.52   9 2.52  32 2.52  31 2.52  43 2.52  65 2.52
                            44 2.52
   7  0.167  0.500  0.000-  18 2.52   8 2.52  21 2.52   6 2.52   5 2.52  12 2.52  42 2.52  44 2.52
                            41 2.52
   8  0.167  0.333  0.000-   7 2.52   2 2.52  18 2.52   3 2.52   5 2.52  17 2.52  39 2.52  41 2.52
                            38 2.52
   9  0.000  0.667  0.000-  10 2.52  12 2.52  36 2.52  31 2.52   6 2.52  11 2.52  66 2.52  48 2.52
                            43 2.52
  10  0.000  0.833  0.000-   4 2.52   9 2.52  11 2.52   1 2.52  36 2.52  35 2.52  47 2.52  69 2.52
                            48 2.52
  11  0.167  0.833  0.000-  22 2.52  13 2.52  12 2.52  10 2.52   4 2.52   9 2.52  46 2.52  48 2.52
                            45 2.52
  12  0.167  0.667  0.000-   6 2.52  11 2.52  22 2.52   9 2.52  21 2.52   7 2.52  43 2.52  45 2.52
                            42 2.52
  13  0.333  0.000  0.000-  15 2.52  22 2.52  11 2.52  16 2.52   4 2.52  14 2.52  46 2.52  52 2.52
                            59 2.52
  14  0.333  0.167  0.000-   4 2.52  17 2.52  15 2.52   3 2.52  13 2.52  20 2.52  37 2.52  51 2.52
                            52 2.52
  15  0.500  0.167  0.000-  13 2.52  20 2.52  14 2.52  26 2.52  16 2.52  29 2.52  50 2.52  52 2.52
                            49 2.52
  16  0.500  0.000  0.000-  26 2.52  25 2.52  13 2.52  23 2.52  15 2.52  22 2.52  59 2.52  49 2.52
                            58 2.52
  17  0.333  0.333  0.000-  14 2.52  20 2.52   8 2.52  19 2.52  18 2.52   3 2.52  38 2.52  56 2.52
                            51 2.52
  18  0.333  0.500  0.000-   7 2.52  21 2.52   8 2.52  17 2.52  24 2.52  19 2.52  41 2.52  55 2.52
                            56 2.52
  19  0.500  0.500  0.000-  30 2.52  33 2.52  20 2.52  17 2.52  24 2.52  18 2.52  54 2.52  56 2.52
                            53 2.52
  20  0.500  0.333  0.000-  19 2.52  30 2.52  15 2.52  29 2.52  17 2.52  14 2.52  51 2.52  53 2.52
                            50 2.52
  21  0.333  0.667  0.000-  18 2.52   7 2.52  24 2.52  12 2.52  23 2.52  22 2.52  42 2.52  60 2.52
                            55 2.52
  22  0.333  0.833  0.000-  11 2.52  13 2.52  12 2.52  16 2.52  21 2.52  23 2.52  45 2.52  59 2.52
                            60 2.52
  23  0.500  0.833  0.000-  34 2.52  25 2.52  24 2.52  16 2.52  21 2.52  22 2.52  58 2.52  60 2.52
                            57 2.52
  24  0.500  0.667  0.000-  23 2.52  34 2.52  33 2.52  21 2.52  18 2.52  19 2.52  55 2.52  57 2.52
                            54 2.52
  25  0.667  0.000  0.000-  23 2.52  27 2.52  34 2.52  16 2.52  28 2.52  26 2.52  58 2.52  64 2.52
                            71 2.52
  26  0.667  0.167  0.000-  16 2.52  29 2.52  27 2.52  15 2.52  25 2.52  32 2.52  49 2.52  63 2.52
                            64 2.52
  27  0.833  0.167  0.000-  25 2.52  32 2.52  26 2.52  28 2.52   5 2.52   2 2.52  62 2.52  64 2.52
                            61 2.52
  28  0.833  0.000  0.000-  35 2.52   1 2.52  25 2.52  27 2.52  34 2.52   2 2.52  71 2.52  61 2.52
                            70 2.52
  29  0.667  0.333  0.000-  31 2.52  26 2.52  20 2.52  32 2.52  30 2.52  15 2.52  50 2.52  68 2.52
                            63 2.52
  30  0.667  0.500  0.000-  19 2.52  20 2.52  33 2.52  31 2.52  29 2.52  36 2.52  53 2.52  67 2.52
                            68 2.52
  31  0.833  0.500  0.000-  36 2.52  29 2.52  30 2.52  32 2.52   9 2.52   6 2.52  66 2.52  68 2.52
                            65 2.52
  32  0.833  0.333  0.000-  27 2.52   5 2.52  29 2.52   6 2.52  31 2.52  26 2.52  63 2.52  65 2.52
                            62 2.52
  33  0.667  0.667  0.000-  19 2.52  30 2.52  35 2.52  24 2.52  36 2.52  34 2.52  54 2.52  72 2.52
                            67 2.52
  34  0.667  0.833  0.000-  23 2.52  25 2.52  24 2.52  35 2.52  28 2.52  33 2.52  57 2.52  71 2.52
                            72 2.52
  35  0.833  0.833  0.000-  28 2.52  33 2.52  34 2.52   1 2.52  36 2.52  10 2.52  70 2.52  72 2.52
                            69 2.52
  36  0.833  0.667  0.000-  31 2.52   9 2.52  33 2.52  30 2.52  10 2.52  35 2.52  67 2.52  69 2.52
                            66 2.52
  37  0.222  0.111  0.097-  75 2.50  76 2.50  74 2.50  51 2.52  52 2.52  38 2.52  46 2.52  40 2.52
                            47 2.52  14 2.52   4 2.52   3 2.52
  38  0.222  0.278  0.097-  76 2.50  73 2.50  79 2.50  37 2.52  51 2.52  40 2.52  56 2.52  39 2.52
                            41 2.52   3 2.52  17 2.52   8 2.52
  39  0.056  0.278  0.097-  73 2.50 100 2.50  78 2.50  40 2.52  61 2.52  62 2.52  38 2.52  41 2.52
                            44 2.52   2 2.52   8 2.52   5 2.52
  40  0.056  0.111  0.097-  74 2.50  99 2.50  73 2.50  39 2.52  61 2.52  38 2.52  70 2.52  37 2.52
                            47 2.52   3 2.52   1 2.52   2 2.52
  41  0.222  0.444  0.097-  79 2.50  80 2.50  78 2.50  55 2.52  56 2.52  42 2.52  38 2.52  44 2.52
                            39 2.52  18 2.52   8 2.52   7 2.52
  42  0.222  0.611  0.097-  80 2.50  77 2.50  83 2.50  41 2.52  55 2.52  44 2.52  60 2.52  43 2.52
                            45 2.52   7 2.52  21 2.52  12 2.52
  43  0.056  0.611  0.097-  77 2.50 104 2.50  82 2.50  44 2.52  65 2.52  66 2.52  42 2.52  48 2.52
                            45 2.52   6 2.52  12 2.52   9 2.52
  44  0.056  0.444  0.097-  78 2.50 103 2.50  77 2.50  43 2.52  65 2.52  42 2.52  62 2.52  41 2.52
                            39 2.52   7 2.52   5 2.52   6 2.52
  45  0.222  0.778  0.097-  83 2.50  84 2.50  82 2.50  59 2.52  60 2.52  46 2.52  42 2.52  48 2.52
                            43 2.52  22 2.52  12 2.52  11 2.52
  46  0.222  0.944  0.097-  84 2.50  81 2.50  75 2.50  45 2.52  59 2.52  48 2.52  52 2.52  47 2.52
                            37 2.52  11 2.52  13 2.52   4 2.52
  47  0.056  0.944  0.097-  81 2.50 108 2.50  74 2.50  69 2.52  48 2.52  70 2.52  46 2.52  40 2.52
                            37 2.52  10 2.52   4 2.52   1 2.52
  48  0.056  0.778  0.097-  82 2.50 107 2.50  81 2.50  47 2.52  69 2.52  46 2.52  66 2.52  45 2.52
                            43 2.52  11 2.52   9 2.52  10 2.52
  49  0.556  0.111  0.097-  87 2.50  88 2.50  86 2.50  63 2.52  64 2.52  50 2.52  58 2.52  52 2.52
                            59 2.52  26 2.52  16 2.52  15 2.52
  50  0.556  0.278  0.097-  88 2.50  85 2.50  91 2.50  49 2.52  63 2.52  52 2.52  68 2.52  51 2.52
                            53 2.52  15 2.52  29 2.52  20 2.52
  51  0.389  0.278  0.097-  85 2.50  76 2.50  90 2.50  37 2.52  52 2.52  38 2.52  50 2.52  56 2.52
                            53 2.52  14 2.52  20 2.52  17 2.52
  52  0.389  0.111  0.097-  86 2.50  75 2.50  85 2.50  51 2.52  37 2.52  50 2.52  46 2.52  49 2.52
                            59 2.52  15 2.52  13 2.52  14 2.52
  53  0.556  0.444  0.097-  91 2.50  92 2.50  90 2.50  67 2.52  68 2.52  54 2.52  50 2.52  56 2.52
                            51 2.52  30 2.52  20 2.52  19 2.52
  54  0.556  0.611  0.097-  92 2.50  89 2.50  95 2.50  53 2.52  67 2.52  56 2.52  72 2.52  55 2.52
                            57 2.52  19 2.52  33 2.52  24 2.52
  55  0.389  0.611  0.097-  89 2.50  80 2.50  94 2.50  41 2.52  56 2.52  42 2.52  54 2.52  60 2.52
                            57 2.52  18 2.52  24 2.52  21 2.52
  56  0.389  0.444  0.097-  90 2.50  79 2.50  89 2.50  55 2.52  41 2.52  54 2.52  38 2.52  53 2.52
                            51 2.52  19 2.52  17 2.52  18 2.52
  57  0.556  0.778  0.097-  95 2.50  96 2.50  94 2.50  71 2.52  72 2.52  58 2.52  54 2.52  60 2.52
                            55 2.52  34 2.52  24 2.52  23 2.52
  58  0.556  0.944  0.097-  96 2.50  93 2.50  87 2.50  57 2.52  71 2.52  60 2.52  64 2.52  59 2.52
                            49 2.52  23 2.52  25 2.52  16 2.52
  59  0.389  0.944  0.097-  93 2.50  84 2.50  86 2.50  45 2.52  60 2.52  46 2.52  58 2.52  52 2.52
                            49 2.52  22 2.52  16 2.52  13 2.52
  60  0.389  0.778  0.097-  94 2.50  83 2.50  93 2.50  59 2.52  45 2.52  58 2.52  42 2.52  57 2.52
                            55 2.52  23 2.52  21 2.52  22 2.52
  61  0.889  0.111  0.097-  99 2.50 100 2.50  98 2.50  39 2.52  40 2.52  62 2.52  70 2.52  64 2.52
                            71 2.52   2 2.52  28 2.52  27 2.52
  62  0.889  0.278  0.097- 100 2.50  97 2.50 103 2.50  61 2.52  39 2.52  64 2.52  44 2.52  63 2.52
                            65 2.52  27 2.52   5 2.52  32 2.52
  63  0.722  0.278  0.097-  97 2.50  88 2.50 102 2.50  64 2.52  49 2.52  50 2.52  62 2.52  65 2.52
                            68 2.52  26 2.52  32 2.52  29 2.52
  64  0.722  0.111  0.097-  98 2.50  87 2.50  97 2.50  63 2.52  49 2.52  62 2.52  58 2.52  61 2.52
                            71 2.52  27 2.52  25 2.52  26 2.52
  65  0.889  0.444  0.097- 103 2.50 104 2.50 102 2.50  43 2.52  44 2.52  66 2.52  62 2.52  68 2.52
                            63 2.52   6 2.52  32 2.52  31 2.52
  66  0.889  0.611  0.097- 104 2.50 101 2.50 107 2.50  65 2.52  43 2.52  68 2.52  48 2.52  67 2.52
                            69 2.52  31 2.52   9 2.52  36 2.52
  67  0.722  0.611  0.097- 101 2.50  92 2.50 106 2.50  68 2.52  53 2.52  54 2.52  66 2.52  72 2.52
                            69 2.52  30 2.52  36 2.52  33 2.52
  68  0.722  0.444  0.097- 102 2.50  91 2.50 101 2.50  67 2.52  53 2.52  66 2.52  50 2.52  65 2.52
                            63 2.52  31 2.52  29 2.52  30 2.52
  69  0.889  0.778  0.097- 107 2.50 108 2.50 106 2.50  47 2.52  48 2.52  70 2.52  66 2.52  72 2.52
                            67 2.52  10 2.52  36 2.52  35 2.52
  70  0.889  0.944  0.097- 108 2.50 105 2.50  99 2.50  69 2.52  47 2.52  72 2.52  40 2.52  71 2.52
                            61 2.52  35 2.52   1 2.52  28 2.52
  71  0.722  0.944  0.097- 105 2.50  96 2.50  98 2.50  72 2.52  57 2.52  58 2.52  70 2.52  64 2.52
                            61 2.52  34 2.52  28 2.52  25 2.52
  72  0.722  0.778  0.097- 106 2.50  95 2.50 105 2.50  71 2.52  57 2.52  70 2.52  54 2.52  69 2.52
                            67 2.52  35 2.52  33 2.52  34 2.52
  73  0.111  0.222  0.193-  39 2.50  38 2.50  40 2.50  79 2.52  76 2.52  78 2.52  74 2.52 100 2.52
                            99 2.52 116 2.56 110 2.56 111 2.56
  74  0.111  0.056  0.193-  40 2.50  47 2.50  37 2.50  81 2.52  75 2.52 108 2.52  76 2.52  99 2.52
                            73 2.52 109 2.56 111 2.56 112 2.56
  75  0.278  0.056  0.193-  37 2.50  52 2.50  46 2.50  84 2.52  81 2.52  74 2.52  86 2.52  85 2.52
                            76 2.52 112 2.56 122 2.56 121 2.56
  76  0.278  0.222  0.193-  38 2.50  51 2.50  37 2.50  79 2.52  73 2.52  90 2.52  74 2.52  85 2.52
                            75 2.52 125 2.56 111 2.56 122 2.56
  77  0.111  0.556  0.193-  43 2.50  42 2.50  44 2.50  83 2.52  80 2.52  82 2.52  78 2.52 104 2.52
                           103 2.52 120 2.56 114 2.56 115 2.56
  78  0.111  0.389  0.193-  44 2.50  39 2.50  41 2.50  73 2.52  79 2.52 100 2.52  80 2.52 103 2.52
                            77 2.52 113 2.56 115 2.56 116 2.56
  79  0.278  0.389  0.193-  41 2.50  56 2.50  38 2.50  76 2.52  73 2.52  78 2.52  90 2.52  89 2.52
                            80 2.52 116 2.56 126 2.56 125 2.56
  80  0.278  0.556  0.193-  42 2.50  55 2.50  41 2.50  83 2.52  77 2.52  94 2.52  78 2.52  89 2.52
                            79 2.52 115 2.56 129 2.56 126 2.56
  81  0.111  0.889  0.193-  47 2.50  46 2.50  48 2.50  75 2.52  84 2.52  74 2.52  82 2.52 108 2.52
                           107 2.52 112 2.56 118 2.56 119 2.56
  82  0.111  0.722  0.193-  48 2.50  43 2.50  45 2.50  77 2.52  83 2.52 104 2.52  84 2.52 107 2.52
                            81 2.52 117 2.56 119 2.56 120 2.56
  83  0.278  0.722  0.193-  45 2.50  60 2.50  42 2.50  77 2.52  80 2.52  82 2.52  94 2.52  93 2.52
                            84 2.52 120 2.56 130 2.56 129 2.56
  84  0.278  0.889  0.193-  46 2.50  59 2.50  45 2.50  75 2.52  81 2.52  86 2.52  82 2.52  93 2.52
                            83 2.52 119 2.56 121 2.56 130 2.56
  85  0.444  0.222  0.193-  51 2.50  50 2.50  52 2.50  91 2.52  88 2.52  90 2.52  86 2.52  76 2.52
                            75 2.52 128 2.56 122 2.56 123 2.56
  86  0.444  0.056  0.193-  52 2.50  59 2.50  49 2.50  93 2.52  87 2.52  84 2.52  88 2.52  75 2.52
                            85 2.52 121 2.56 123 2.56 124 2.56
  87  0.611  0.056  0.193-  49 2.50  64 2.50  58 2.50  96 2.52  93 2.52  86 2.52  98 2.52  97 2.52
                            88 2.52 124 2.56 134 2.56 133 2.56
  88  0.611  0.222  0.193-  50 2.50  63 2.50  49 2.50  91 2.52  85 2.52 102 2.52  86 2.52  97 2.52
                            87 2.52 137 2.56 123 2.56 134 2.56
  89  0.444  0.556  0.193-  55 2.50  54 2.50  56 2.50  95 2.52  92 2.52  94 2.52  90 2.52  80 2.52
                            79 2.52 132 2.56 126 2.56 127 2.56
  90  0.444  0.389  0.193-  56 2.50  51 2.50  53 2.50  85 2.52  91 2.52  76 2.52  92 2.52  79 2.52
                            89 2.52 125 2.56 127 2.56 128 2.56
  91  0.611  0.389  0.193-  53 2.50  68 2.50  50 2.50  88 2.52  85 2.52  90 2.52 102 2.52 101 2.52
                            92 2.52 128 2.56 138 2.56 137 2.56
  92  0.611  0.556  0.193-  54 2.50  67 2.50  53 2.50  95 2.52  89 2.52 106 2.52  90 2.52 101 2.52
                            91 2.52 127 2.56 141 2.56 138 2.56
  93  0.444  0.889  0.193-  59 2.50  58 2.50  60 2.50  87 2.52  96 2.52  86 2.52  94 2.52  84 2.52
                            83 2.52 124 2.56 130 2.56 131 2.56
  94  0.444  0.722  0.193-  60 2.50  55 2.50  57 2.50  89 2.52  95 2.52  80 2.52  96 2.52  83 2.52
                            93 2.52 129 2.56 131 2.56 132 2.56
  95  0.611  0.722  0.193-  57 2.50  72 2.50  54 2.50  89 2.52  92 2.52  94 2.52 106 2.52 105 2.52
                            96 2.52 132 2.56 142 2.56 141 2.56
  96  0.611  0.889  0.193-  58 2.50  71 2.50  57 2.50  87 2.52  93 2.52  98 2.52  94 2.52 105 2.52
                            95 2.52 131 2.56 133 2.56 142 2.56
  97  0.778  0.222  0.193-  63 2.50  62 2.50  64 2.50 103 2.52 100 2.52 102 2.52  98 2.52  88 2.52
                            87 2.52 140 2.56 134 2.56 135 2.56
  98  0.778  0.056  0.193-  64 2.50  71 2.50  61 2.50 105 2.52  99 2.52  96 2.52 100 2.52  87 2.52
                            97 2.52 133 2.56 135 2.56 136 2.56
  99  0.944  0.056  0.193-  61 2.50  40 2.50  70 2.50 105 2.52 108 2.52  98 2.52  74 2.52 100 2.52
                            73 2.52 136 2.56 110 2.56 109 2.56
 100  0.944  0.222  0.193-  62 2.50  39 2.50  61 2.50 103 2.52  97 2.52  78 2.52  98 2.52  73 2.52
                            99 2.52 113 2.56 135 2.56 110 2.56
 101  0.778  0.556  0.193-  67 2.50  66 2.50  68 2.50 107 2.52 104 2.52 106 2.52 102 2.52  92 2.52
                            91 2.52 144 2.56 138 2.56 139 2.56
 102  0.778  0.389  0.193-  68 2.50  63 2.50  65 2.50  97 2.52 103 2.52  88 2.52 104 2.52  91 2.52
                           101 2.52 137 2.56 139 2.56 140 2.56
 103  0.944  0.389  0.193-  65 2.50  44 2.50  62 2.50  97 2.52 100 2.52 102 2.52  78 2.52  77 2.52
                           104 2.52 140 2.56 114 2.56 113 2.56
 104  0.944  0.556  0.193-  66 2.50  43 2.50  65 2.50 107 2.52 101 2.52  82 2.52 102 2.52  77 2.52
                           103 2.52 117 2.56 139 2.56 114 2.56
 105  0.778  0.889  0.193-  71 2.50  70 2.50  72 2.50  99 2.52 108 2.52  98 2.52 106 2.52  96 2.52
                            95 2.52 136 2.56 142 2.56 143 2.56
 106  0.778  0.722  0.193-  72 2.50  67 2.50  69 2.50 101 2.52 107 2.52  92 2.52 108 2.52  95 2.52
                           105 2.52 141 2.56 143 2.56 144 2.56
 107  0.944  0.722  0.193-  69 2.50  48 2.50  66 2.50 101 2.52 104 2.52 106 2.52  82 2.52  81 2.52
                           108 2.52 144 2.56 118 2.56 117 2.56
 108  0.944  0.889  0.193-  70 2.50  47 2.50  69 2.50  99 2.52 105 2.52  74 2.52 106 2.52  81 2.52
                           107 2.52 109 2.56 143 2.56 118 2.56
 109  0.000  0.000  0.293- 110 2.52 111 2.52 112 2.52 136 2.52 118 2.52 143 2.52 108 2.56  74 2.56
                            99 2.56
 110  0.000  0.167  0.293- 111 2.52 109 2.52 116 2.52 136 2.52 113 2.52 135 2.52  73 2.56  99 2.56
                           100 2.56
 111  0.167  0.167  0.293- 110 2.52 109 2.52 116 2.52 122 2.52 112 2.52 125 2.52  76 2.56  74 2.56
                            73 2.56
 112  0.167  0.000  0.293- 118 2.52 122 2.52 109 2.52 121 2.52 111 2.52 119 2.52  81 2.56  75 2.56
                            74 2.56
 113  0.000  0.333  0.293- 114 2.52 116 2.52 140 2.52 115 2.52 135 2.52 110 2.52 100 2.56  78 2.56
                           103 2.56
 114  0.000  0.500  0.293- 120 2.52 113 2.52 115 2.52 117 2.52 140 2.52 139 2.52  77 2.56 103 2.56
                           104 2.56
 115  0.167  0.500  0.293- 126 2.52 116 2.52 129 2.52 114 2.52 113 2.52 120 2.52  80 2.56  78 2.56
                            77 2.56
 116  0.167  0.333  0.293- 115 2.52 110 2.52 126 2.52 111 2.52 113 2.52 125 2.52  73 2.56  79 2.56
                            78 2.56
 117  0.000  0.667  0.293- 118 2.52 120 2.52 144 2.52 139 2.52 114 2.52 119 2.52 104 2.56  82 2.56
                           107 2.56
 118  0.000  0.833  0.293- 112 2.52 117 2.52 119 2.52 109 2.52 144 2.52 143 2.52  81 2.56 107 2.56
                           108 2.56
 119  0.167  0.833  0.293- 130 2.52 121 2.52 120 2.52 118 2.52 112 2.52 117 2.52  84 2.56  82 2.56
                            81 2.56
 120  0.167  0.667  0.293- 114 2.52 119 2.52 130 2.52 117 2.52 129 2.52 115 2.52  77 2.56  83 2.56
                            82 2.56
 121  0.333  0.000  0.293- 123 2.52 130 2.52 119 2.52 124 2.52 112 2.52 122 2.52  84 2.56  86 2.56
                            75 2.56
 122  0.333  0.167  0.293- 112 2.52 125 2.52 123 2.52 111 2.52 121 2.52 128 2.52  75 2.56  85 2.56
                            76 2.56
 123  0.500  0.167  0.293- 121 2.52 128 2.52 122 2.52 134 2.52 124 2.52 137 2.52  88 2.56  86 2.56
                            85 2.56
 124  0.500  0.000  0.293- 134 2.52 133 2.52 121 2.52 131 2.52 123 2.52 130 2.52  93 2.56  87 2.56
                            86 2.56
 125  0.333  0.333  0.293- 122 2.52 128 2.52 116 2.52 127 2.52 126 2.52 111 2.52  76 2.56  90 2.56
                            79 2.56
 126  0.333  0.500  0.293- 115 2.52 129 2.52 116 2.52 125 2.52 132 2.52 127 2.52  79 2.56  89 2.56
                            80 2.56
 127  0.500  0.500  0.293- 154 2.42 138 2.52 141 2.52 128 2.52 132 2.52 125 2.52 126 2.52  92 2.56
                            90 2.56  89 2.56
 128  0.500  0.333  0.293- 127 2.52 138 2.52 123 2.52 137 2.52 125 2.52 122 2.52  85 2.56  91 2.56
                            90 2.56
 129  0.333  0.667  0.293- 126 2.52 115 2.52 132 2.52 120 2.52 131 2.52 130 2.52  80 2.56  94 2.56
                            83 2.56
 130  0.333  0.833  0.293- 119 2.52 121 2.52 120 2.52 124 2.52 129 2.52 131 2.52  83 2.56  93 2.56
                            84 2.56
 131  0.500  0.833  0.293- 142 2.52 133 2.52 132 2.52 124 2.52 129 2.52 130 2.52  96 2.56  94 2.56
                            93 2.56
 132  0.500  0.667  0.293- 131 2.52 142 2.52 141 2.52 129 2.52 126 2.52 127 2.52  89 2.56  95 2.56
                            94 2.56
 133  0.667  0.000  0.293- 131 2.52 135 2.52 142 2.52 124 2.52 136 2.52 134 2.52  96 2.56  98 2.56
                            87 2.56
 134  0.667  0.167  0.293- 124 2.52 137 2.52 135 2.52 123 2.52 133 2.52 140 2.52  87 2.56  97 2.56
                            88 2.56
 135  0.833  0.167  0.293- 133 2.52 140 2.52 134 2.52 136 2.52 113 2.52 110 2.52 100 2.56  98 2.56
                            97 2.56
 136  0.833  0.000  0.293- 143 2.52 109 2.52 133 2.52 135 2.52 142 2.52 110 2.52 105 2.56  99 2.56
                            98 2.56
 137  0.667  0.333  0.293- 158 2.35 139 2.52 134 2.52 128 2.52 140 2.52 138 2.52 123 2.52  88 2.56
                           102 2.56  91 2.56
 138  0.667  0.500  0.293- 127 2.52 128 2.52 141 2.52 139 2.52 137 2.52 144 2.52  91 2.56 101 2.56
                            92 2.56
 139  0.833  0.500  0.293- 144 2.52 137 2.52 138 2.52 140 2.52 117 2.52 114 2.52 104 2.56 102 2.56
                           101 2.56
 140  0.833  0.333  0.293- 174 1.45 159 2.21 135 2.52 113 2.52 137 2.52 114 2.52 139 2.52 134 2.52
                            97 2.56 103 2.56 102 2.56
 141  0.667  0.667  0.293- 127 2.52 138 2.52 143 2.52 132 2.52 144 2.52 142 2.52  92 2.56 106 2.56
                            95 2.56
 142  0.667  0.833  0.293- 131 2.52 133 2.52 132 2.52 143 2.52 136 2.52 141 2.52  95 2.56 105 2.56
                            96 2.56
 143  0.833  0.833  0.293- 136 2.52 141 2.52 142 2.52 109 2.52 144 2.52 118 2.52 108 2.56 106 2.56
                           105 2.56
 144  0.833  0.667  0.293- 139 2.52 117 2.52 141 2.52 138 2.52 118 2.52 143 2.52 101 2.56 107 2.56
                           106 2.56
 145  0.584  0.735  0.412- 156 1.23
 146  0.448  0.763  0.404- 156 1.38 157 1.44
 147  0.582  0.268  0.392- 158 1.22
 148  0.746  0.403  0.400- 158 1.38 159 1.44
 149  0.228  0.414  0.407- 168 1.10 167 1.10 169 1.10 150 1.51
 150  0.330  0.419  0.407- 151 1.40 155 1.42 149 1.51
 151  0.337  0.330  0.408- 162 1.09 152 1.39 150 1.40
 152  0.430  0.331  0.408- 163 1.09 151 1.39 153 1.40
 153  0.520  0.426  0.407- 152 1.40 154 1.40 161 1.41
 154  0.516  0.516  0.407- 164 1.09 155 1.40 153 1.40 127 2.42
 155  0.422  0.513  0.407- 154 1.40 160 1.41 150 1.42
 156  0.492  0.702  0.408- 145 1.23 160 1.37 146 1.38
 157  0.520  0.871  0.406- 170 1.09 172 1.10 171 1.10 146 1.44
 158  0.641  0.360  0.399- 147 1.22 161 1.37 148 1.38 137 2.35
 159  0.781  0.332  0.390- 175 1.09 173 1.10 174 1.10 148 1.44 140 2.21
 160  0.415  0.602  0.405- 165 1.01 156 1.37 155 1.41
 161  0.617  0.435  0.407- 166 1.02 158 1.37 153 1.41
 162  0.266  0.256  0.409- 151 1.09
 163  0.432  0.261  0.409- 152 1.09
 164  0.586  0.590  0.406- 154 1.09
 165  0.344  0.592  0.402- 160 1.01
 166  0.678  0.507  0.410- 161 1.02
 167  0.219  0.453  0.448- 149 1.10
 168  0.166  0.334  0.409- 149 1.10
 169  0.217  0.448  0.364- 149 1.10
 170  0.473  0.907  0.399- 157 1.09
 171  0.559  0.892  0.452- 157 1.10
 172  0.576  0.893  0.368- 157 1.10
 173  0.749  0.271  0.426- 159 1.10
 174  0.759  0.298  0.343- 159 1.10 140 1.45
 175  0.864  0.377  0.394- 159 1.09
 
  LATTYP: Found a hexagonal cell.
 ALAT       =    15.1479005815
 C/A-ratio  =     1.3984776241
  
  Lattice vectors:
  
 A1 = (  15.1479005814,   0.0000000000,   0.0000000000)
 A2 = (  -7.5739502907,  13.1184667176,   0.0000000000)
 A3 = (   0.0000000000,   0.0000000000,  21.1840000153)


Analysis of symmetry for initial positions (statically):
=====================================================================
 Subroutine PRICEL returns:
 Original cell was already a primitive cell.
 

 Routine SETGRP: Setting up the symmetry group for a 
 hexagonal supercell.


 Subroutine GETGRP returns: Found  1 space group operations
 (whereof  1 operations were pure point group operations)
 out of a pool of 24 trial point group operations.


The static configuration has the point symmetry C_1 .


Analysis of symmetry for dynamics (positions and initial velocities):
=====================================================================
 Subroutine PRICEL returns:
 Original cell was already a primitive cell.
 

 Routine SETGRP: Setting up the symmetry group for a 
 hexagonal supercell.


 Subroutine GETGRP returns: Found  1 space group operations
 (whereof  1 operations were pure point group operations)
 out of a pool of 24 trial point group operations.


The dynamic configuration has the point symmetry C_1 .


Analysis of constrained symmetry for selective dynamics:
=====================================================================
 Subroutine PRICEL returns:
 Original cell was already a primitive cell.
 

 Routine SETGRP: Setting up the symmetry group for a 
 hexagonal supercell.


 Subroutine GETGRP returns: Found  1 space group operations
 (whereof  1 operations were pure point group operations)
 out of a pool of 24 trial point group operations.


The constrained configuration has the point symmetry C_1 .


 Subroutine INISYM returns: Found  1 space group operations
 (whereof  1 operations are pure point group operations),
 and found     1 'primitive' translations

 
 
 KPOINTS: K-POINTS                                

Automatic generation of k-mesh.
Space group operators:
 irot       det(A)        alpha          n_x          n_y          n_z        tau_x        tau_y        tau_z
    1     1.000000     0.000001     1.000000     0.000000     0.000000     0.000000     0.000000     0.000000
 
 Subroutine IBZKPT returns following result:
 ===========================================
 
 Found      5 irreducible k-points:
 
 Following reciprocal coordinates:
            Coordinates               Weight
  0.000000  0.000000  0.000000      1.000000
  0.333333 -0.000000  0.000000      2.000000
  0.000000  0.333333  0.000000      2.000000
  0.333333  0.333333  0.000000      2.000000
 -0.333333  0.333333  0.000000      2.000000
 
 Following cartesian coordinates:
            Coordinates               Weight
  0.000000  0.000000  0.000000      1.000000
  0.022005  0.012705  0.000000      2.000000
  0.000000  0.025409  0.000000      2.000000
  0.022005  0.038114  0.000000      2.000000
 -0.022005  0.012705  0.000000      2.000000
 


--------------------------------------------------------------------------------------------------------




 Dimension of arrays:
   k-points           NKPTS =      5   k-points in BZ     NKDIM =      5   number of bands    NBANDS=   1008
   number of dos      NEDOS =    301   number of ions     NIONS =    175
   non local maximal  LDIM  =      6   non local SUM 2l+1 LMDIM =     18
   total plane-waves  NPLWV = 716800
   max r-space proj   IRMAX =   2102   max aug-charges    IRDMAX=   5131
   dimension x,y,z NGX =    80 NGY =   80 NGZ =  112
   dimension x,y,z NGXF=   160 NGYF=  160 NGZF=  224
   support grid    NGXF=   160 NGYF=  160 NGZF=  224
   ions per type =             144   4  11   2  14
   NGX,Y,Z   is equivalent  to a cutoff of   8.78,  8.78,  8.79 a.u.
   NGXF,Y,Z  is equivalent  to a cutoff of  17.56, 17.56, 17.58 a.u.

 SYSTEM =  x                                       
 POSCAR =  Cu  O  C  N  H                          

 Startparameter for this run:
   NWRITE =      0    write-flag & timer
   PREC   = normal    normal or accurate (medium, high low for compatibility)
   ISTART =      0    job   : 0-new  1-cont  2-samecut
   ICHARG =      2    charge: 1-file 2-atom 10-const
   ISPIN  =      1    spin polarized calculation?
   LNONCOLLINEAR =      F non collinear calculations
   LSORBIT =      F    spin-orbit coupling
   INIWAV =      1    electr: 0-lowe 1-rand  2-diag
   LASPH  =      F    aspherical Exc in radial PAW
   METAGGA=      F    non-selfconsistent MetaGGA calc.

 Electronic Relaxation 1
   ENCUT  =  450.0 eV  33.07 Ry    5.75 a.u.  26.20 26.20 36.64*2*pi/ulx,y,z
   ENINI  =  450.0     initial cutoff
   ENAUG  =  644.9 eV  augmentation charge cutoff
   NELM   =     50;   NELMIN=  5; NELMDL= -7     # of ELM steps 
   EDIFF  = 0.1E-04   stopping-criterion for ELM
   LREAL  =      T    real-space projection
   NLSPLINE    = F    spline interpolate recip. space projectors
   LCOMPAT=      F    compatible to vasp.4.4
   GGA_COMPAT  = T    GGA compatible to vasp.4.4-vasp.4.6
   LMAXPAW     = -100 max onsite density
   LMAXMIX     =    2 max onsite mixed and CHGCAR
   VOSKOWN=      0    Vosko Wilk Nusair interpolation
   ROPT   =   -0.00050  -0.00050  -0.00050  -0.00050
   ROPT   =   -0.00050
 Ionic relaxation
   EDIFFG = -.2E-01   stopping-criterion for IOM
   NSW    =    300    number of steps for IOM
   NBLOCK =      1;   KBLOCK =    300    inner block; outer block 
   IBRION =      2    ionic relax: 0-MD 1-quasi-New 2-CG
   NFREE  =      2    steps in history (QN), initial steepest desc. (CG)
   ISIF   =      2    stress and relaxation
   IWAVPR =     11    prediction:  0-non 1-charg 2-wave 3-comb
   ISYM   =      2    0-nonsym 1-usesym 2-fastsym
   LCORR  =      T    Harris-Foulkes like correction to forces

   POTIM  = 0.1500    time-step for ionic-motion
   TEIN   =    0.0    initial temperature
   TEBEG  =    0.0;   TEEND  =   0.0 temperature during run
   SMASS  =  -3.00    Nose mass-parameter (am)
   estimated Nose-frequenzy (Omega)   =  0.10E-29 period in steps =****** mass=  -0.524E-26a.u.
   SCALEE = 1.0000    scale energy and forces
   NPACO  =    256;   APACO  = 16.0  distance and # of slots for P.C.
   PSTRESS=    0.0 pullay stress

  Mass of Ions in am
   POMASS =  63.55 16.00 12.01 14.00  1.00
  Ionic Valenz
   ZVAL   =  11.00  6.00  4.00  5.00  1.00
  Atomic Wigner-Seitz radii
   RWIGS  =  -1.00 -1.00 -1.00 -1.00 -1.00
  virtual crystal weights 
   VCA    =   1.00  1.00  1.00  1.00  1.00
   NELECT =    1676.0000    total number of electrons
   NUPDOWN=      -1.0000    fix difference up-down

 DOS related values:
   EMIN   =  10.00;   EMAX   =-10.00  energy-range for DOS
   EFERMI =   0.00
   ISMEAR =     0;   SIGMA  =   0.03  broadening in eV -4-tet -1-fermi 0-gaus

 Electronic relaxation 2 (details)
   IALGO  =     68    algorithm
   LDIAG  =      T    sub-space diagonalisation (order eigenvalues)
   LSUBROT=      F    optimize rotation matrix (better conditioning)
   TURBO    =      0    0=normal 1=particle mesh
   IRESTART =      0    0=no restart 2=restart with 2 vectors
   NREBOOT  =      0    no. of reboots
   NMIN     =      0    reboot dimension
   EREF     =   0.00    reference energy to select bands
   IMIX   =      4    mixing-type and parameters
     AMIX     =   0.40;   BMIX     =  1.00
     AMIX_MAG =   1.60;   BMIX_MAG =  1.00
     AMIN     =   0.10
     WC   =   100.;   INIMIX=   1;  MIXPRE=   1;  MAXMIX= -45

 Intra band minimization:
   WEIMIN = 0.0010     energy-eigenvalue tresh-hold
   EBREAK =  0.25E-08  absolut break condition
   DEPER  =   0.30     relativ break condition  

   TIME   =   0.40     timestep for ELM

  volume/ion in A,a.u.               =      24.06       162.33
  Fermi-wavevector in a.u.,A,eV,Ry     =   1.204347  2.275886 19.734597  1.450452
  Thomas-Fermi vector in A             =   2.340075
 
 Write flags
   LWAVE        =      F    write WAVECAR
   LDOWNSAMPLE  =      F    k-point downsampling of WAVECAR
   LCHARG       =      F    write CHGCAR
   LVTOT        =      F    write LOCPOT, total local potential
   LVHAR        =      F    write LOCPOT, Hartree potential only
   LELF         =      F    write electronic localiz. function (ELF)
   LORBIT       =      0    0 simple, 1 ext, 2 COOP (PROOUT), +10 PAW based schemes


 Dipole corrections
   LMONO  =      F    monopole corrections only (constant potential shift)
   LDIPOL =      T    correct potential (dipole corrections)
   IDIPOL =      3    1-x, 2-y, 3-z, 4-all directions 
   EPSILON=  1.0000000 bulk dielectric constant

 Exchange correlation treatment:
   GGA     =    PE    GGA type
   LEXCH   =     8    internal setting for exchange type
   VOSKOWN=      0    Vosko Wilk Nusair interpolation
   LHFCALC =     F    Hartree Fock is set to
   LHFONE  =     F    Hartree Fock one center treatment
   AEXX    =    0.0000 exact exchange contribution

 Linear response parameters
   LEPSILON=     F    determine dielectric tensor
   LRPA    =     F    only Hartree local field effects (RPA)
   LNABLA  =     F    use nabla operator in PAW spheres
   LVEL    =     F    velocity operator in full k-point grid
   LINTERFAST=   F  fast interpolation
   KINTER  =     0    interpolate to denser k-point grid
   CSHIFT  =0.1000    complex shift for real part using Kramers Kronig
   OMEGAMAX=  -1.0    maximum frequency
   DEG_THRESHOLD= 0.2000000E-02 threshold for treating states as degnerate
   RTIME   =   -0.100 relaxation time in fs
  (WPLASMAI=    0.000 imaginary part of plasma frequency in eV, 0.658/RTIME)
   DFIELD  = 0.0000000 0.0000000 0.0000000 field for delta impulse in time
 
 Orbital magnetization related:
   ORBITALMAG=     F  switch on orbital magnetization
   LCHIMAG   =     F  perturbation theory with respect to B field
   DQ        =  0.001000  dq finite difference perturbation B field
   LLRAUG    =     F  two centre corrections for induced B field



--------------------------------------------------------------------------------------------------------


 conjugate gradient relaxation of ions
   using selective dynamics as specified on POSCAR
   WARNING: If single coordinates had been selected the selection of coordinates
            is made according to the corresponding   d i r e c t   coordinates!
            Don't support selection of single cartesian coordinates -- sorry ...
  !
 charge density and potential will be updated during run
 non-spin polarized calculation
 RMM-DIIS sequential band-by-band and
  variant of blocked Davidson during initial phase
 perform sub-space diagonalisation
    before iterative eigenvector-optimisation
 modified Broyden-mixing scheme, WC =      100.0
 initial mixing is a Kerker type mixing with AMIX =  0.4000 and BMIX =      1.0000
 Hartree-type preconditioning will be used
 using additional bands          170
 real space projection scheme for non local part
 use partial core corrections
 calculate Harris-corrections to forces 
   (improved forces if not selfconsistent)
 use gradient corrections 
 use of overlap-Matrix (Vanderbilt PP)
 Gauss-broadening in eV      SIGMA  =   0.03


--------------------------------------------------------------------------------------------------------


  energy-cutoff  :      450.00
  volume of cell :     4209.63
      direct lattice vectors                 reciprocal lattice vectors
    15.147900581  0.000000000  0.000000000     0.066015749  0.038114210  0.000000000
    -7.573950291 13.118466718  0.000000000     0.000000000  0.076228421  0.000000000
     0.000000000  0.000000000 21.184000015     0.000000000  0.000000000  0.047205438

  length of vectors
    15.147900581 15.147900581 21.184000015     0.076228421  0.076228421  0.047205438


 
 k-points in units of 2pi/SCALE and weight: K-POINTS                                
   0.00000000  0.00000000  0.00000000       0.111
   0.02200525  0.01270474  0.00000000       0.222
   0.00000000  0.02540947  0.00000000       0.222
   0.02200525  0.03811421  0.00000000       0.222
  -0.02200525  0.01270474  0.00000000       0.222
 
 k-points in reciprocal lattice and weights: K-POINTS                                
   0.00000000  0.00000000  0.00000000       0.111
   0.33333333 -0.00000000  0.00000000       0.222
   0.00000000  0.33333333  0.00000000       0.222
   0.33333333  0.33333333  0.00000000       0.222
  -0.33333333  0.33333333  0.00000000       0.222
 
 position of ions in fractional coordinates (direct lattice) 
   0.00000000  0.00000000  0.00000000
   0.00000000  0.16666667  0.00000000
   0.16666667  0.16666667  0.00000000
   0.16666667  0.00000000  0.00000000
   0.00000000  0.33333333  0.00000000
   0.00000000  0.50000000  0.00000000
   0.16666667  0.50000000  0.00000000
   0.16666667  0.33333333  0.00000000
   0.00000000  0.66666667  0.00000000
   0.00000000  0.83333333  0.00000000
   0.16666667  0.83333333  0.00000000
   0.16666667  0.66666667  0.00000000
   0.33333333  0.00000000  0.00000000
   0.33333333  0.16666667  0.00000000
   0.50000000  0.16666667  0.00000000
   0.50000000  0.00000000  0.00000000
   0.33333333  0.33333333  0.00000000
   0.33333333  0.50000000  0.00000000
   0.50000000  0.50000000  0.00000000
   0.50000000  0.33333333  0.00000000
   0.33333333  0.66666667  0.00000000
   0.33333333  0.83333333  0.00000000
   0.50000000  0.83333333  0.00000000
   0.50000000  0.66666667  0.00000000
   0.66666667  0.00000000  0.00000000
   0.66666667  0.16666667  0.00000000
   0.83333333  0.16666667  0.00000000
   0.83333333  0.00000000  0.00000000
   0.66666667  0.33333333  0.00000000
   0.66666667  0.50000000  0.00000000
   0.83333333  0.50000000  0.00000000
   0.83333333  0.33333333  0.00000000
   0.66666667  0.66666667  0.00000000
   0.66666667  0.83333333  0.00000000
   0.83333333  0.83333333  0.00000000
   0.83333333  0.66666667  0.00000000
   0.22222334  0.11111000  0.09731000
   0.22222334  0.27777666  0.09731000
   0.05555666  0.27777666  0.09731000
   0.05555666  0.11111000  0.09731000
   0.22222334  0.44444334  0.09731000
   0.22222334  0.61110999  0.09731000
   0.05555666  0.61110999  0.09731000
   0.05555666  0.44444334  0.09731000
   0.22222334  0.77777667  0.09731000
   0.22222334  0.94444333  0.09731000
   0.05555666  0.94444333  0.09731000
   0.05555666  0.77777667  0.09731000
   0.55555667  0.11111000  0.09731000
   0.55555667  0.27777666  0.09731000
   0.38889000  0.27777666  0.09731000
   0.38889000  0.11111000  0.09731000
   0.55555667  0.44444334  0.09731000
   0.55555667  0.61110999  0.09731000
   0.38889000  0.61110999  0.09731000
   0.38889000  0.44444334  0.09731000
   0.55555667  0.77777667  0.09731000
   0.55555667  0.94444333  0.09731000
   0.38889000  0.94444333  0.09731000
   0.38889000  0.77777667  0.09731000
   0.88889001  0.11111000  0.09731000
   0.88889001  0.27777666  0.09731000
   0.72222333  0.27777666  0.09731000
   0.72222333  0.11111000  0.09731000
   0.88889001  0.44444334  0.09731000
   0.88889001  0.61110999  0.09731000
   0.72222333  0.61110999  0.09731000
   0.72222333  0.44444334  0.09731000
   0.88889001  0.77777667  0.09731000
   0.88889001  0.94444333  0.09731000
   0.72222333  0.94444333  0.09731000
   0.72222333  0.77777667  0.09731000
   0.11111000  0.22222334  0.19331573
   0.11111000  0.05555666  0.19331573
   0.27777666  0.05555666  0.19331573
   0.27777666  0.22222334  0.19331573
   0.11111000  0.55555667  0.19331573
   0.11111000  0.38889000  0.19331573
   0.27777666  0.38889000  0.19331573
   0.27777666  0.55555667  0.19331573
   0.11111000  0.88889001  0.19331573
   0.11111000  0.72222333  0.19331573
   0.27777666  0.72222333  0.19331573
   0.27777666  0.88889001  0.19331573
   0.44444334  0.22222334  0.19331573
   0.44444333  0.05555666  0.19331573
   0.61110999  0.05555666  0.19331573
   0.61110999  0.22222334  0.19331573
   0.44444334  0.55555667  0.19331573
   0.44444333  0.38889000  0.19331573
   0.61110999  0.38889000  0.19331573
   0.61110999  0.55555667  0.19331573
   0.44444334  0.88889001  0.19331573
   0.44444333  0.72222333  0.19331573
   0.61110999  0.72222333  0.19331573
   0.61110999  0.88889001  0.19331573
   0.77777667  0.22222334  0.19331573
   0.77777667  0.05555666  0.19331573
   0.94444333  0.05555666  0.19331573
   0.94444333  0.22222334  0.19331573
   0.77777667  0.55555667  0.19331573
   0.77777667  0.38889000  0.19331573
   0.94444333  0.38889000  0.19331573
   0.94444333  0.55555667  0.19331573
   0.77777667  0.88889001  0.19331573
   0.77777667  0.72222333  0.19331573
   0.94444333  0.72222333  0.19331573
   0.94444333  0.88889001  0.19331573
   0.00000000  0.00000000  0.29280224
   0.00000000  0.16666667  0.29280224
   0.16666667  0.16666667  0.29280224
   0.16666667  0.00000000  0.29280224
   0.00000000  0.33333333  0.29280224
   0.00000000  0.50000000  0.29280224
   0.16666667  0.50000000  0.29280224
   0.16666667  0.33333333  0.29280224
   0.00000000  0.66666667  0.29280224
   0.00000000  0.83333333  0.29280224
   0.16666667  0.83333333  0.29280224
   0.16666667  0.66666667  0.29280224
   0.33333333  0.00000000  0.29280224
   0.33333333  0.16666667  0.29280224
   0.50000000  0.16666667  0.29280224
   0.50000000  0.00000000  0.29280224
   0.33333333  0.33333333  0.29280224
   0.33333333  0.50000000  0.29280224
   0.50000000  0.50000000  0.29280224
   0.50000000  0.33333333  0.29280224
   0.33333333  0.66666667  0.29280224
   0.33333333  0.83333333  0.29280224
   0.50000000  0.83333333  0.29280224
   0.50000000  0.66666667  0.29280224
   0.66666667  0.00000000  0.29280224
   0.66666667  0.16666667  0.29280224
   0.83333333  0.16666667  0.29280224
   0.83333333  0.00000000  0.29280224
   0.66666667  0.33333333  0.29280224
   0.66666667  0.50000000  0.29280224
   0.83333333  0.50000000  0.29280224
   0.83333333  0.33333333  0.29280224
   0.66666667  0.66666667  0.29280224
   0.66666667  0.83333333  0.29280224
   0.83333333  0.83333333  0.29280224
   0.83333333  0.66666667  0.29280224
   0.58386905  0.73480039  0.41202743
   0.44822128  0.76255467  0.40410524
   0.58248337  0.26833027  0.39191440
   0.74574140  0.40348475  0.40039893
   0.22829780  0.41372052  0.40725397
   0.33004269  0.41858349  0.40743602
   0.33690789  0.33000838  0.40830818
   0.42955199  0.33115730  0.40828466
   0.52005402  0.42550284  0.40718924
   0.51632695  0.51624820  0.40663367
   0.42247986  0.51311588  0.40672263
   0.49201368  0.70212299  0.40767342
   0.51950672  0.87055356  0.40609094
   0.64136790  0.35967613  0.39903678
   0.78108398  0.33213455  0.39032165
   0.41538998  0.60220286  0.40539633
   0.61732026  0.43511867  0.40683890
   0.26633394  0.25646585  0.40893058
   0.43212370  0.26077919  0.40850743
   0.58617882  0.59001933  0.40588481
   0.34424718  0.59248216  0.40232343
   0.67777072  0.50696675  0.40980511
   0.21870938  0.45291411  0.44834115
   0.16601880  0.33430493  0.40873869
   0.21680735  0.44834229  0.36444639
   0.47343456  0.90705866  0.39942114
   0.55884569  0.89234369  0.45183962
   0.57643272  0.89283509  0.36834777
   0.74944586  0.27144142  0.42601309
   0.75880666  0.29753612  0.34322673
   0.86418579  0.37719495  0.39432732
 
 position of ions in cartesian coordinates  (Angst):
   0.00000000  0.00000000  0.00000000
  -1.26232505  2.18641112  0.00000000
   1.26232505  2.18641112  0.00000000
   2.52465010  0.00000000  0.00000000
  -2.52465010  4.37282224  0.00000000
  -3.78697515  6.55923336  0.00000000
  -1.26232505  6.55923336  0.00000000
  -0.00000000  4.37282224  0.00000000
  -5.04930019  8.74564448  0.00000000
  -6.31162524 10.93205560  0.00000000
  -3.78697515 10.93205560  0.00000000
  -2.52465010  8.74564448  0.00000000
   5.04930019  0.00000000  0.00000000
   3.78697515  2.18641112  0.00000000
   6.31162524  2.18641112  0.00000000
   7.57395029  0.00000000  0.00000000
   2.52465010  4.37282224  0.00000000
   1.26232505  6.55923336  0.00000000
   3.78697515  6.55923336  0.00000000
   5.04930019  4.37282224  0.00000000
   0.00000000  8.74564448  0.00000000
  -1.26232505 10.93205560  0.00000000
   1.26232505 10.93205560  0.00000000
   2.52465010  8.74564448  0.00000000
  10.09860039  0.00000000  0.00000000
   8.83627534  2.18641112  0.00000000
  11.36092544  2.18641112  0.00000000
  12.62325048  0.00000000  0.00000000
   7.57395029  4.37282224  0.00000000
   6.31162524  6.55923336  0.00000000
   8.83627534  6.55923336  0.00000000
  10.09860039  4.37282224  0.00000000
   5.04930019  8.74564448  0.00000000
   3.78697515 10.93205560  0.00000000
   6.31162524 10.93205560  0.00000000
   7.57395029  8.74564448  0.00000000
   2.52467545  1.45759286  2.06141502
   1.26235048  3.64400385  2.06141502
  -1.26229977  3.64400385  2.06141502
   0.00002521  1.45759286  2.06141502
   0.00002536  5.83041510  2.06141502
  -1.26229962  8.01682609  2.06141502
  -3.78694986  8.01682609  2.06141502
  -2.52462489  5.83041510  2.06141502
  -2.52462474 10.20323734  2.06141502
  -3.78694972 12.38964833  2.06141502
  -6.31159996 12.38964833  2.06141502
  -5.04927499 10.20323734  2.06141502
   7.57397565  1.45759286  2.06141502
   6.31165067  3.64400385  2.06141502
   3.78700043  3.64400385  2.06141502
   5.04932540  1.45759286  2.06141502
   5.04932555  5.83041510  2.06141502
   3.78700057  8.01682609  2.06141502
   1.26235033  8.01682609  2.06141502
   2.52467531  5.83041510  2.06141502
   2.52467545 10.20323734  2.06141502
   1.26235048 12.38964833  2.06141502
  -1.26229977 12.38964833  2.06141502
   0.00002521 10.20323734  2.06141502
  12.62327584  1.45759286  2.06141502
  11.36095086  3.64400385  2.06141502
   8.83630062  3.64400385  2.06141502
  10.09862560  1.45759286  2.06141502
  10.09862574  5.83041510  2.06141502
   8.83630077  8.01682609  2.06141502
   6.31165052  8.01682609  2.06141502
   7.57397550  5.83041510  2.06141502
   7.57397565 10.20323734  2.06141502
   6.31165067 12.38964833  2.06141502
   3.78700043 12.38964833  2.06141502
   5.04932540 10.20323734  2.06141502
  -0.00002528  2.91522951  4.09520041
   1.26229984  0.72881826  4.09520041
   3.78694979  0.72881826  4.09520041
   2.52462467  2.91522951  4.09520041
  -2.52467538  7.28805175  4.09520041
  -1.26235026  5.10164050  4.09520041
   1.26229969  5.10164050  4.09520041
  -0.00002543  7.28805175  4.09520041
  -5.04932548 11.66087399  4.09520041
  -3.78700035  9.47446274  4.09520041
  -1.26235040  9.47446274  4.09520041
  -2.52467553 11.66087399  4.09520041
   5.04927491  2.91522951  4.09520041
   6.31160003  0.72881826  4.09520041
   8.83624998  0.72881826  4.09520041
   7.57392486  2.91522951  4.09520041
   2.52462482  7.28805175  4.09520041
   3.78694994  5.10164050  4.09520041
   6.31159989  5.10164050  4.09520041
   5.04927477  7.28805175  4.09520041
  -0.00002528 11.66087399  4.09520041
   1.26229984  9.47446274  4.09520041
   3.78694979  9.47446274  4.09520041
   2.52462467 11.66087399  4.09520041
  10.09857511  2.91522951  4.09520041
  11.36090023  0.72881826  4.09520041
  13.88555018  0.72881826  4.09520041
  12.62322506  2.91522951  4.09520041
   7.57392501  7.28805175  4.09520041
   8.83625013  5.10164050  4.09520041
  11.36090008  5.10164050  4.09520041
  10.09857496  7.28805175  4.09520041
   5.04927491 11.66087399  4.09520041
   6.31160003  9.47446274  4.09520041
   8.83624998  9.47446274  4.09520041
   7.57392486 11.66087399  4.09520041
   0.00000000  0.00000000  6.20272268
  -1.26232505  2.18641112  6.20272268
   1.26232505  2.18641112  6.20272268
   2.52465010  0.00000000  6.20272268
  -2.52465010  4.37282224  6.20272268
  -3.78697515  6.55923336  6.20272268
  -1.26232505  6.55923336  6.20272268
  -0.00000000  4.37282224  6.20272268
  -5.04930019  8.74564448  6.20272268
  -6.31162524 10.93205560  6.20272268
  -3.78697515 10.93205560  6.20272268
  -2.52465010  8.74564448  6.20272268
   5.04930019  0.00000000  6.20272268
   3.78697515  2.18641112  6.20272268
   6.31162524  2.18641112  6.20272268
   7.57395029  0.00000000  6.20272268
   2.52465010  4.37282224  6.20272268
   1.26232505  6.55923336  6.20272268
   3.78697515  6.55923336  6.20272268
   5.04930019  4.37282224  6.20272268
   0.00000000  8.74564448  6.20272268
  -1.26232505 10.93205560  6.20272268
   1.26232505 10.93205560  6.20272268
   2.52465010  8.74564448  6.20272268
  10.09860039  0.00000000  6.20272268
   8.83627534  2.18641112  6.20272268
  11.36092544  2.18641112  6.20272268
  12.62325048  0.00000000  6.20272268
   7.57395029  4.37282224  6.20272268
   6.31162524  6.55923336  6.20272268
   8.83627534  6.55923336  6.20272268
  10.09860039  4.37282224  6.20272268
   5.04930019  8.74564448  6.20272268
   3.78697515 10.93205560  6.20272268
   6.31162524 10.93205560  6.20272268
   7.57395029  8.74564448  6.20272268
   3.27904879  9.63945440  8.72838914
   1.01406022 10.00354804  8.56056546
   6.79108009  3.52008166  8.30231472
   8.24044304  5.29310132  8.48205084
   0.32473377  5.42737884  8.62726811
   1.82912332  5.49117365  8.63112463
   2.60398012  4.32920401  8.64960045
   3.99864197  4.34427598  8.64910222
   4.65498916  5.58194491  8.62589692
   3.91123107  6.77238487  8.61412764
   2.51336872  6.73129357  8.61601229
   2.13512969  9.21077708  8.63615377
   1.27590666 11.42032796  8.60263048
   6.99120811  4.71839933  8.45319512
   9.31621182  4.35709608  8.26857375
   1.73123152  7.89997822  8.58791580
   6.05553880  5.70808973  8.61847528
   2.09194043  3.36443876  8.66278546
   4.57063820  3.42102316  8.65382133
   4.41060138  7.74014890  8.59826386
   0.72719171  7.77245747  8.52281964
   6.42706255  6.65062644  8.68131147
  -0.11736099  5.94153865  9.49765892
  -0.01717268  4.38556816  8.65872044
  -0.11154602  5.88156335  7.72043236
   0.30152252 11.89921884  8.46133736
   1.70677228 11.70618098  9.57177054
   1.96945700 11.71262742  7.80307909
   9.29664751  3.56089526  9.02466124
   9.24080407  3.90321768  7.27091499
  10.23374470  4.94821940  8.35342987
 


--------------------------------------------------------------------------------------------------------


 k-point  1 :   0.0000 0.0000 0.0000  plane waves:   91267
 k-point  2 :   0.3333-0.0000 0.0000  plane waves:   91252
 k-point  3 :   0.0000 0.3333 0.0000  plane waves:   91252
 k-point  4 :   0.3333 0.3333 0.0000  plane waves:   91296
 k-point  5 :  -0.3333 0.3333 0.0000  plane waves:   91252

 maximum and minimum number of plane-waves per node :     91296    91252

 maximum number of plane-waves:     91296
 maximum index in each direction: 
   IXMAX=   26   IYMAX=   26   IZMAX=   36
   IXMIN=  -26   IYMIN=  -26   IZMIN=  -36


 serial   3D FFT for wavefunctions
 parallel 3D FFT for charge:
    minimum data exchange during FFTs selected (reduces bandwidth)


 total amount of memory used by VASP MPI-rank0   292833. kBytes
=======================================================================

   base      :      30000. kBytes
   nonlr-proj:      54084. kBytes
   fftplans  :       7568. kBytes
   grid      :      40325. kBytes
   one-center:       2721. kBytes
   wavefun   :     158135. kBytes
 
     INWAV:  cpu time    0.0000: real time    0.0003
 Broyden mixing: mesh for mixing (old mesh)
   NGX = 53   NGY = 53   NGZ = 73
  (NGX  =160   NGY  =160   NGZ  =224)
  gives a total of 205057 points

 initial charge density was supplied:
 charge density of overlapping atoms calculated
 number of electron    1676.0000000 magnetization 
 keeping initial charge density in first step


--------------------------------------------------------------------------------------------------------


 Maximum index for non-local projection operator         2025
 Maximum index for augmentation-charges          319 (set IRDMAX)


--------------------------------------------------------------------------------------------------------


 First call to EWALD:  gamma=   0.110
 Maximum number of real-space cells 3x 3x 2
 Maximum number of reciprocal cells 3x 3x 3

    FEWALD:  cpu time    0.0065: real time    0.0065


--------------------------------------- Iteration      1(   1)  ---------------------------------------


    POTLOK:  cpu time    0.1214: real time    0.1410
    SETDIJ:  cpu time    0.0131: real time    0.0181
     EDDAV:  cpu time   50.8107: real time   50.9041
       DOS:  cpu time    0.0060: real time    0.0081
    --------------------------------------------
      LOOP:  cpu time   50.9513: real time   51.0713

 eigenvalue-minimisations  : 10080
 total energy-change (2. order) : 0.1665158E+05  (-0.6577700E+05)
 number of electron    1676.0000000 magnetization 
 augmentation part     1676.0000000 magnetization 

 DIPCOR: dipole corrections for dipol
 direction  3 min pos   147,
 dipolmoment           0.000000      0.000000     -0.002215 electrons x Angstroem
 Tr[quadrupol]    -67495.840751

 energy correction for charged system         0.000000 eV
 dipol+quadrupol energy correction           -0.000000 eV
 added-field ion interaction          0.027995 eV  (added to PSCEN)


 Free energy of the ion-electron system (eV)
  ---------------------------------------------------
  alpha Z        PSCENC =      3969.23373434
  Ewald energy   TEWEN  =    610175.46811503
  -Hartree energ DENC   =   -807988.28613921
  -exchange      EXHF   =         0.00000000
  -V(xc)+E(xc)   XCENC  =      6907.73358549
  PAW double counting   =    179881.44128754  -195138.62593496
  entropy T*S    EENTRO =        -0.01648386
  eigenvalues    EBANDS =     14493.02116513
  atomic energy  EATOM  =    204351.60996219
  Solvation  Ediel_sol  =         0.00000000
  ---------------------------------------------------
  free energy    TOTEN  =     16651.57929168 eV

  energy without entropy =    16651.59577555  energy(sigma->0) =    16651.58753362


--------------------------------------------------------------------------------------------------------




--------------------------------------- Iteration      1(   2)  ---------------------------------------


     EDDAV:  cpu time   51.1687: real time   51.1936
       DOS:  cpu time    0.0011: real time    0.0011
    --------------------------------------------
      LOOP:  cpu time   51.1698: real time   51.1946

 eigenvalue-minimisations  : 10080
 total energy-change (2. order) :-0.1440865E+05  (-0.1389708E+05)
 number of electron    1676.0000000 magnetization 
 augmentation part     1676.0000000 magnetization 

 DIPCOR: dipole corrections for dipol
 direction  3 min pos   147,
 dipolmoment           0.000000      0.000000     -0.002215 electrons x Angstroem
 Tr[quadrupol]    -67495.840751

 energy correction for charged system         0.000000 eV
 dipol+quadrupol energy correction           -0.000000 eV
 added-field ion interaction          0.027995 eV  (added to PSCEN)


 Free energy of the ion-electron system (eV)
  ---------------------------------------------------
  alpha Z        PSCENC =      3969.23373434
  Ewald energy   TEWEN  =    610175.46811503
  -Hartree energ DENC   =   -807988.28613921
  -exchange      EXHF   =         0.00000000
  -V(xc)+E(xc)   XCENC  =      6907.73358549
  PAW double counting   =    179881.44128754  -195138.62593496
  entropy T*S    EENTRO =        -0.02783983
  eigenvalues    EBANDS =        84.37902576
  atomic energy  EATOM  =    204351.60996219
  Solvation  Ediel_sol  =         0.00000000
  ---------------------------------------------------
  free energy    TOTEN  =      2242.92579635 eV

  energy without entropy =     2242.95363618  energy(sigma->0) =     2242.93971626


--------------------------------------------------------------------------------------------------------




--------------------------------------- Iteration      1(   3)  ---------------------------------------


     EDDAV:  cpu time   62.2897: real time   62.6954
       DOS:  cpu time    0.0012: real time    0.0012
    --------------------------------------------
      LOOP:  cpu time   62.2908: real time   62.6966

 eigenvalue-minimisations  : 11952
 total energy-change (2. order) :-0.2706155E+04  (-0.2480590E+04)
 number of electron    1676.0000000 magnetization 
 augmentation part     1676.0000000 magnetization 

 DIPCOR: dipole corrections for dipol
 direction  3 min pos   147,
 dipolmoment           0.000000      0.000000     -0.002215 electrons x Angstroem
 Tr[quadrupol]    -67495.840751

 energy correction for charged system         0.000000 eV
 dipol+quadrupol energy correction           -0.000000 eV
 added-field ion interaction          0.027995 eV  (added to PSCEN)


 Free energy of the ion-electron system (eV)
  ---------------------------------------------------
  alpha Z        PSCENC =      3969.23373434
  Ewald energy   TEWEN  =    610175.46811503
  -Hartree energ DENC   =   -807988.28613921
  -exchange      EXHF   =         0.00000000
  -V(xc)+E(xc)   XCENC  =      6907.73358549
  PAW double counting   =    179881.44128754  -195138.62593496
  entropy T*S    EENTRO =        -0.03420551
  eigenvalues    EBANDS =     -2621.76918005
  atomic energy  EATOM  =    204351.60996219
  Solvation  Ediel_sol  =         0.00000000
  ---------------------------------------------------
  free energy    TOTEN  =      -463.22877514 eV

  energy without entropy =     -463.19456963  energy(sigma->0) =     -463.21167238


--------------------------------------------------------------------------------------------------------




--------------------------------------- Iteration      1(   4)  ---------------------------------------


     EDDAV:  cpu time   82.1331: real time   82.1596
       DOS:  cpu time    0.0011: real time    0.0011
    --------------------------------------------
      LOOP:  cpu time   82.1342: real time   82.1607

 eigenvalue-minimisations  : 17808
 total energy-change (2. order) :-0.3503556E+03  (-0.3378701E+03)
 number of electron    1676.0000000 magnetization 
 augmentation part     1676.0000000 magnetization 

 DIPCOR: dipole corrections for dipol
 direction  3 min pos   147,
 dipolmoment           0.000000      0.000000     -0.002215 electrons x Angstroem
 Tr[quadrupol]    -67495.840751

 energy correction for charged system         0.000000 eV
 dipol+quadrupol energy correction           -0.000000 eV
 added-field ion interaction          0.027995 eV  (added to PSCEN)


 Free energy of the ion-electron system (eV)
  ---------------------------------------------------
  alpha Z        PSCENC =      3969.23373434
  Ewald energy   TEWEN  =    610175.46811503
  -Hartree energ DENC   =   -807988.28613921
  -exchange      EXHF   =         0.00000000
  -V(xc)+E(xc)   XCENC  =      6907.73358549
  PAW double counting   =    179881.44128754  -195138.62593496
  entropy T*S    EENTRO =        -0.04591258
  eigenvalues    EBANDS =     -2972.11306167
  atomic energy  EATOM  =    204351.60996219
  Solvation  Ediel_sol  =         0.00000000
  ---------------------------------------------------
  free energy    TOTEN  =      -813.58436383 eV

  energy without entropy =     -813.53845125  energy(sigma->0) =     -813.56140754


--------------------------------------------------------------------------------------------------------




--------------------------------------- Iteration      1(   5)  ---------------------------------------


     EDDAV:  cpu time   73.8617: real time   73.9047
       DOS:  cpu time    0.0012: real time    0.0012
    --------------------------------------------
      LOOP:  cpu time   73.8629: real time   73.9058

 eigenvalue-minimisations  : 15792
 total energy-change (2. order) :-0.1965110E+02  (-0.1930332E+02)
 number of electron    1676.0000000 magnetization 
 augmentation part     1676.0000000 magnetization 

 DIPCOR: dipole corrections for dipol
 direction  3 min pos   147,
 dipolmoment           0.000000      0.000000     -0.002215 electrons x Angstroem
 Tr[quadrupol]    -67495.840751

 energy correction for charged system         0.000000 eV
 dipol+quadrupol energy correction           -0.000000 eV
 added-field ion interaction          0.027995 eV  (added to PSCEN)


 Free energy of the ion-electron system (eV)
  ---------------------------------------------------
  alpha Z        PSCENC =      3969.23373434
  Ewald energy   TEWEN  =    610175.46811503
  -Hartree energ DENC   =   -807988.28613921
  -exchange      EXHF   =         0.00000000
  -V(xc)+E(xc)   XCENC  =      6907.73358549
  PAW double counting   =    179881.44128754  -195138.62593496
  entropy T*S    EENTRO =        -0.05225579
  eigenvalues    EBANDS =     -2991.75781498
  atomic energy  EATOM  =    204351.60996219
  Solvation  Ediel_sol  =         0.00000000
  ---------------------------------------------------
  free energy    TOTEN  =      -833.23546035 eV

  energy without entropy =     -833.18320456  energy(sigma->0) =     -833.20933246


--------------------------------------------------------------------------------------------------------




--------------------------------------- Iteration      1(   6)  ---------------------------------------


     EDDAV:  cpu time   72.8228: real time   72.8767
       DOS:  cpu time    0.0011: real time    0.0011
    --------------------------------------------
      LOOP:  cpu time   72.8239: real time   72.8779

 eigenvalue-minimisations  : 15552
 total energy-change (2. order) :-0.4848856E+00  (-0.4807410E+00)
 number of electron    1676.0000000 magnetization 
 augmentation part     1676.0000000 magnetization 

 DIPCOR: dipole corrections for dipol
 direction  3 min pos   147,
 dipolmoment           0.000000      0.000000     -0.002215 electrons x Angstroem
 Tr[quadrupol]    -67495.840751

 energy correction for charged system         0.000000 eV
 dipol+quadrupol energy correction           -0.000000 eV
 added-field ion interaction          0.027995 eV  (added to PSCEN)


 Free energy of the ion-electron system (eV)
  ---------------------------------------------------
  alpha Z        PSCENC =      3969.23373434
  Ewald energy   TEWEN  =    610175.46811503
  -Hartree energ DENC   =   -807988.28613921
  -exchange      EXHF   =         0.00000000
  -V(xc)+E(xc)   XCENC  =      6907.73358549
  PAW double counting   =    179881.44128754  -195138.62593496
  entropy T*S    EENTRO =        -0.05271791
  eigenvalues    EBANDS =     -2992.24223849
  atomic energy  EATOM  =    204351.60996219
  Solvation  Ediel_sol  =         0.00000000
  ---------------------------------------------------
  free energy    TOTEN  =      -833.72034598 eV

  energy without entropy =     -833.66762808  energy(sigma->0) =     -833.69398703


--------------------------------------------------------------------------------------------------------




--------------------------------------- Iteration      1(   7)  ---------------------------------------


     EDDAV:  cpu time   72.9120: real time   73.2495
       DOS:  cpu time    0.0012: real time    0.0012
    CHARGE:  cpu time    2.1130: real time    2.1138
    MIXING:  cpu time    0.0034: real time    0.0040
    --------------------------------------------
      LOOP:  cpu time   75.0295: real time   75.3685

 eigenvalue-minimisations  : 15648
 total energy-change (2. order) :-0.1526166E-01  (-0.1524267E-01)
 number of electron    1675.9999991 magnetization 
 augmentation part      938.8266947 magnetization 

 DIPCOR: dipole corrections for dipol
 direction  3 min pos   147,
 dipolmoment           0.000000      0.000000     -0.002215 electrons x Angstroem
 Tr[quadrupol]    -67495.840751

 energy correction for charged system         0.000000 eV
 dipol+quadrupol energy correction           -0.000000 eV
 added-field ion interaction          0.027995 eV  (added to PSCEN)


 Broyden mixing:
  rms(total) = 0.95692E+01    rms(broyden)= 0.95683E+01
  rms(prec ) = 0.10240E+02
  weight for this iteration     100.00

 Free energy of the ion-electron system (eV)
  ---------------------------------------------------
  alpha Z        PSCENC =      3969.23373434
  Ewald energy   TEWEN  =    610175.46811503
  -Hartree energ DENC   =   -807988.28613921
  -exchange      EXHF   =         0.00000000
  -V(xc)+E(xc)   XCENC  =      6907.73358549
  PAW double counting   =    179881.44128754  -195138.62593496
  entropy T*S    EENTRO =        -0.05273261
  eigenvalues    EBANDS =     -2992.25748545
  atomic energy  EATOM  =    204351.60996219
  Solvation  Ediel_sol  =         0.00000000
  ---------------------------------------------------
  free energy    TOTEN  =      -833.73560764 eV

  energy without entropy =     -833.68287503  energy(sigma->0) =     -833.70924133


--------------------------------------------------------------------------------------------------------




--------------------------------------- Iteration      1(   8)  ---------------------------------------


    POTLOK:  cpu time    0.1093: real time    0.1103
    SETDIJ:  cpu time    0.0127: real time    0.0127
    EDDIAG:  cpu time    9.7880: real time    9.8111
  RMM-DIIS:  cpu time   24.1108: real time   24.1911
    ORTHCH:  cpu time    3.2336: real time    3.2347
       DOS:  cpu time    0.0011: real time    0.0011
    CHARGE:  cpu time    2.1028: real time    2.1032
    MIXING:  cpu time    0.0035: real time    0.0095
    --------------------------------------------
      LOOP:  cpu time   39.3619: real time   39.4737

 eigenvalue-minimisations  : 10178
 total energy-change (2. order) : 0.5953399E+02  (-0.1631300E+03)
 number of electron    1675.9999983 magnetization 
 augmentation part     1063.2348722 magnetization 

 DIPCOR: dipole corrections for dipol
 direction  3 min pos   152,
 dipolmoment           0.000000      0.000000      2.131398 electrons x Angstroem
 Tr[quadrupol]    -67487.356704

 energy correction for charged system         0.000000 eV
 dipol+quadrupol energy correction           -0.098104 eV
 added-field ion interaction         46.012113 eV  (added to PSCEN)


 Broyden mixing:
  rms(total) = 0.55080E+01    rms(broyden)= 0.55066E+01
  rms(prec ) = 0.61811E+01
  weight for this iteration     100.00

 eigenvalues of (default mixing * dielectric matrix)
  average eigenvalue GAMMA=   0.6434
  0.6434

 Free energy of the ion-electron system (eV)
  ---------------------------------------------------
  alpha Z        PSCENC =      4015.11974831
  Ewald energy   TEWEN  =    610175.46811503
  -Hartree energ DENC   =   -803681.10425875
  -exchange      EXHF   =         0.00000000
  -V(xc)+E(xc)   XCENC  =      6718.08037257
  PAW double counting   =    184004.80738083  -198458.05475174
  entropy T*S    EENTRO =        -0.01397457
  eigenvalues    EBANDS =     -7900.11421639
  atomic energy  EATOM  =    204351.60996219
  Solvation  Ediel_sol  =         0.00000000
  ---------------------------------------------------
  free energy    TOTEN  =      -774.20162252 eV

  energy without entropy =     -774.18764794  energy(sigma->0) =     -774.19463523


--------------------------------------------------------------------------------------------------------




--------------------------------------- Iteration      1(   9)  ---------------------------------------


    POTLOK:  cpu time    0.1077: real time    0.1092
    SETDIJ:  cpu time    0.0128: real time    0.0128
    EDDIAG:  cpu time   13.0385: real time   13.0575
  RMM-DIIS:  cpu time   24.5550: real time   24.5622
    ORTHCH:  cpu time    3.2159: real time    3.2166
       DOS:  cpu time    0.0011: real time    0.0011
    CHARGE:  cpu time    2.1062: real time    2.1066
    MIXING:  cpu time    0.0033: real time    0.0034
    --------------------------------------------
      LOOP:  cpu time   43.0405: real time   43.0693

 eigenvalue-minimisations  : 10271
 total energy-change (2. order) : 0.5721184E+02  (-0.3019026E+02)
 number of electron    1676.0000013 magnetization 
 augmentation part     1010.8964699 magnetization 

 DIPCOR: dipole corrections for dipol
 direction  3 min pos   154,
 dipolmoment           0.000000      0.000000     -3.068158 electrons x Angstroem
 Tr[quadrupol]    -67500.671649

 energy correction for charged system         0.000000 eV
 dipol+quadrupol energy correction           -0.203290 eV
 added-field ion interaction       -108.242931 eV  (added to PSCEN)


 Broyden mixing:
  rms(total) = 0.22387E+01    rms(broyden)= 0.22381E+01
  rms(prec ) = 0.40501E+01
  weight for this iteration     100.00

 eigenvalues of (default mixing * dielectric matrix)
  average eigenvalue GAMMA=   0.5543
  0.7040  0.4045

 Free energy of the ion-electron system (eV)
  ---------------------------------------------------
  alpha Z        PSCENC =      3860.75951890
  Ewald energy   TEWEN  =    610175.46811503
  -Hartree energ DENC   =   -805718.39026848
  -exchange      EXHF   =         0.00000000
  -V(xc)+E(xc)   XCENC  =      6784.69520856
  PAW double counting   =    188629.28790357  -203796.28436025
  entropy T*S    EENTRO =        -0.01648249
  eigenvalues    EBANDS =     -5004.11937778
  atomic energy  EATOM  =    204351.60996219
  Solvation  Ediel_sol  =         0.00000000
  ---------------------------------------------------
  free energy    TOTEN  =      -716.98978075 eV

  energy without entropy =     -716.97329826  energy(sigma->0) =     -716.98153950


--------------------------------------------------------------------------------------------------------




--------------------------------------- Iteration      1(  10)  ---------------------------------------


    POTLOK:  cpu time    0.1073: real time    0.1082
    SETDIJ:  cpu time    0.0127: real time    0.0127
    EDDIAG:  cpu time    9.9291: real time    9.9316
  RMM-DIIS:  cpu time   24.6406: real time   24.6561
    ORTHCH:  cpu time    3.3343: real time    3.3350
       DOS:  cpu time    0.0011: real time    0.0011
    CHARGE:  cpu time    2.1101: real time    2.1108
    MIXING:  cpu time    0.0034: real time    0.0034
    --------------------------------------------
      LOOP:  cpu time   40.1387: real time   40.1588

 eigenvalue-minimisations  : 10357
 total energy-change (2. order) : 0.1838796E+02  (-0.1281437E+01)
 number of electron    1675.9999979 magnetization 
 augmentation part     1014.2057825 magnetization 

 DIPCOR: dipole corrections for dipol
 direction  3 min pos   150,
 dipolmoment           0.000000      0.000000      0.689587 electrons x Angstroem
 Tr[quadrupol]    -67507.036383

 energy correction for charged system         0.000000 eV
 dipol+quadrupol energy correction           -0.010269 eV
 added-field ion interaction          5.445038 eV  (added to PSCEN)


 Broyden mixing:
  rms(total) = 0.13458E+01    rms(broyden)= 0.13455E+01
  rms(prec ) = 0.18539E+01
  weight for this iteration     100.00

 eigenvalues of (default mixing * dielectric matrix)
  average eigenvalue GAMMA=   0.8299
  1.7040  0.6139  0.1719

 Free energy of the ion-electron system (eV)
  ---------------------------------------------------
  alpha Z        PSCENC =      3974.64050783
  Ewald energy   TEWEN  =    610175.46811503
  -Hartree energ DENC   =   -805799.61213905
  -exchange      EXHF   =         0.00000000
  -V(xc)+E(xc)   XCENC  =      6783.57598460
  PAW double counting   =    189696.48477362  -204926.05540144
[...]
    --------------------------------------------
      LOOP:  cpu time   34.6921: real time   34.7035

 eigenvalue-minimisations  :  7644
 total energy-change (2. order) :-0.1438332E-04  (-0.1779457E-04)
 number of electron    1675.9999234 magnetization 
 augmentation part     1014.4872393 magnetization 

 DIPCOR: dipole corrections for dipol
 direction  3 min pos   155,
 dipolmoment           0.000000      0.000000     -0.554293 electrons x Angstroem
 Tr[quadrupol]    -67503.943409

 energy correction for charged system         0.000000 eV
 dipol+quadrupol energy correction           -0.006635 eV
 added-field ion interaction        -20.613328 eV  (added to PSCEN)


 eigenvalues of (default mixing * dielectric matrix)
  average eigenvalue GAMMA=   1.1366
  1.1366

  free energy =  -0.698494975534E+03  energy without entropy=  -0.698445313622E+03


--------------------------------------------------------------------------------------------------------




--------------------------------------- Iteration    211(   3)  ---------------------------------------


    POTLOK:  cpu time    0.1111: real time    0.1118
    SETDIJ:  cpu time    0.0125: real time    0.0125
    EDDIAG:  cpu time    9.8759: real time    9.8797
  RMM-DIIS:  cpu time   14.4522: real time   14.4597
    ORTHCH:  cpu time    3.3289: real time    3.3295
       DOS:  cpu time    0.0011: real time    0.0011
    CHARGE:  cpu time    2.1665: real time    2.1671
    MIXING:  cpu time    0.0033: real time    0.0033
    --------------------------------------------
      LOOP:  cpu time   29.9517: real time   29.9649

 eigenvalue-minimisations  :  5853
 total energy-change (2. order) :-0.3286783E-05  (-0.1559571E-05)
 number of electron    1675.9999234 magnetization 
 augmentation part     1014.4875267 magnetization 

 DIPCOR: dipole corrections for dipol
 direction  3 min pos   155,
 dipolmoment           0.000000      0.000000     -0.552796 electrons x Angstroem
 Tr[quadrupol]    -67503.947358

 energy correction for charged system         0.000000 eV
 dipol+quadrupol energy correction           -0.006599 eV
 added-field ion interaction        -20.557670 eV  (added to PSCEN)


 eigenvalues of (default mixing * dielectric matrix)
  average eigenvalue GAMMA=   0.8775
  1.3256  0.4294

  free energy =  -0.698494978821E+03  energy without entropy=  -0.698445314321E+03


--------------------------------------------------------------------------------------------------------




--------------------------------------- Iteration    211(   4)  ---------------------------------------


    POTLOK:  cpu time    0.1096: real time    0.1111
    SETDIJ:  cpu time    0.0124: real time    0.0125
    EDDIAG:  cpu time    9.8855: real time    9.8882
  RMM-DIIS:  cpu time   13.8928: real time   13.8972
    ORTHCH:  cpu time    3.1924: real time    3.1931
       DOS:  cpu time    0.0012: real time    0.0011
    CHARGE:  cpu time    2.2108: real time    2.2116
    MIXING:  cpu time    0.0035: real time    0.0035
    --------------------------------------------
      LOOP:  cpu time   29.3082: real time   29.3183

 eigenvalue-minimisations  :  5614
 total energy-change (2. order) : 0.3136171E-05  (-0.6018641E-06)
 number of electron    1675.9999234 magnetization 
 augmentation part     1014.4873286 magnetization 

 DIPCOR: dipole corrections for dipol
 direction  3 min pos   155,
 dipolmoment           0.000000      0.000000     -0.554764 electrons x Angstroem
 Tr[quadrupol]    -67503.944691

 energy correction for charged system         0.000000 eV
 dipol+quadrupol energy correction           -0.006646 eV
 added-field ion interaction        -20.630853 eV  (added to PSCEN)


 eigenvalues of (default mixing * dielectric matrix)
  average eigenvalue GAMMA=   0.9952
  1.9811  0.8231  0.1814

  free energy =  -0.698494975685E+03  energy without entropy=  -0.698445303084E+03


--------------------------------------------------------------------------------------------------------




--------------------------------------- Iteration    211(   5)  ---------------------------------------


    POTLOK:  cpu time    0.1095: real time    0.1104
    SETDIJ:  cpu time    0.0126: real time    0.0126
    EDDIAG:  cpu time    9.8601: real time    9.8625
  RMM-DIIS:  cpu time   13.4963: real time   13.5000
    ORTHCH:  cpu time    3.2272: real time    3.2279
       DOS:  cpu time    0.0011: real time    0.0011
    --------------------------------------------
      LOOP:  cpu time   26.7068: real time   26.7144

 eigenvalue-minimisations  :  5492
 total energy-change (2. order) : 0.1056382E-05  (-0.4188696E-06)
 number of electron    1675.9999234 magnetization 
 augmentation part     1014.4873286 magnetization 

 DIPCOR: dipole corrections for dipol
 direction  3 min pos   155,
 dipolmoment           0.000000      0.000000     -0.554117 electrons x Angstroem
 Tr[quadrupol]    -67503.946526

 energy correction for charged system         0.000000 eV
 dipol+quadrupol energy correction           -0.006631 eV
 added-field ion interaction        -20.606787 eV  (added to PSCEN)


  free energy =  -0.698494974628E+03  energy without entropy=  -0.698445319330E+03


--------------------------------------------------------------------------------------------------------




------------------------ aborting loop because EDIFF is reached ----------------------------------------


    CHARGE:  cpu time    2.2109: real time    2.2116
    FORLOC:  cpu time    0.0905: real time    0.0906
    FORNL :  cpu time    8.3481: real time    8.3499
    STRESS:  cpu time   24.8356: real time   24.8412
    FORCOR:  cpu time    0.1654: real time    0.1654
    FORHAR:  cpu time    0.1088: real time    0.1088
    MIXING:  cpu time    0.0037: real time    0.0037
    OFIELD:  cpu time    0.0001: real time    0.0001

  Number of pair interactions contributing to vdW energy:  965764
  Edisp (eV):  -12.90287
    FORVDW:  cpu time    0.1372: real time    0.1372

  FORCE on cell =-STRESS in cart. coord.  units (eV):
  Direction    XX          YY          ZZ          XY          YZ          ZX
  --------------------------------------------------------------------------------------
  Alpha Z  3969.20574  3969.20574  3969.20574
  Ewald  684768.67170684226.25693************ -1288.00811   313.59895    86.36179
  Hartree738986.79095738540.17043************ -1176.03854   218.65223    56.26597
  E(xc)   -9623.10802 -9623.25786 -9648.66573    -0.05818     0.40930     0.14460
  Local  ************************************  2469.66511  -522.95805  -137.40241
  n-local -3241.81709 -3242.02863 -3333.07249    -2.84632    -0.11165     0.01893
  augment 13636.31998 13636.36284 13706.73659    -0.03949    -0.22714    -0.25986
  Kinetic 14410.04172 14405.42795 14671.20298    -2.65921    -9.27121    -4.95021
  Fock        0.00000     0.00000     0.00000     0.00000     0.00000     0.00000
  vdW       -16.78058   -16.60500   -14.16612     0.07484     0.00384    -0.00675
  -------------------------------------------------------------------------------------
  Total      11.36423    11.50939    -4.97370     0.09010     0.09627     0.17207
  in kB       4.32521     4.38046    -1.89298     0.03429     0.03664     0.06549
  external pressure =        2.27 kB  Pullay stress =        0.00 kB



--------------------------------------------------------------------------------------------------------



  FREE ENERGIE OF THE ION-ELECTRON SYSTEM (eV)
  ---------------------------------------------------
  free  energy   TOTEN  =      -711.39784226 eV

  energy  without entropy=     -711.34818696  energy(sigma->0) =     -711.37301461
 
 d Force = 0.3162447E-04[ 0.579E-05, 0.575E-04]  d Energy = 0.2452319E-04 0.710E-05
 d Force = 0.2019564E+01[ 0.202E+01, 0.202E+01]  d Ewald  = 0.2019564E+01-0.686E-07


--------------------------------------------------------------------------------------------------------


    POTLOK:  cpu time    0.1304: real time    0.1305


--------------------------------------------------------------------------------------------------------




--------------------------------------------------------------------------------------------------------


    WAVPRE:  cpu time    0.0858: real time    0.0874
    FEWALD:  cpu time    0.0050: real time    0.0050
    ORTHCH:  cpu time    5.9193: real time    5.9205
     LOOP+:  cpu time  217.1617: real time  217.2314


--------------------------------------- Iteration    212(   1)  ---------------------------------------


    POTLOK:  cpu time    0.1099: real time    0.1122
    SETDIJ:  cpu time    0.0126: real time    0.0126
     EDDAV:  cpu time   52.5608: real time   52.5776
       DOS:  cpu time    0.0011: real time    0.0011
    CHARGE:  cpu time    2.1711: real time    2.1717
    MIXING:  cpu time    0.0029: real time    0.0029
    --------------------------------------------
      LOOP:  cpu time   54.8585: real time   54.8782

 eigenvalue-minimisations  : 10464
 total energy-change (2. order) :-0.1104090E-03  (-0.2501794E-03)
 number of electron    1675.9999234 magnetization 
 augmentation part     1014.4872096 magnetization 

 DIPCOR: dipole corrections for dipol
 direction  3 min pos   155,
 dipolmoment           0.000000      0.000000     -0.554379 electrons x Angstroem
 Tr[quadrupol]    -67503.963089

 energy correction for charged system         0.000000 eV
 dipol+quadrupol energy correction           -0.006637 eV
 added-field ion interaction        -20.616433 eV  (added to PSCEN)


  free energy =  -0.698495086094E+03  energy without entropy=  -0.698445418216E+03


--------------------------------------------------------------------------------------------------------




--------------------------------------- Iteration    212(   2)  ---------------------------------------


    POTLOK:  cpu time    0.1129: real time    0.1133
    SETDIJ:  cpu time    0.0125: real time    0.0125
    EDDIAG:  cpu time    9.8817: real time    9.8852
  RMM-DIIS:  cpu time   16.0009: real time   16.1195
    ORTHCH:  cpu time    3.1915: real time    3.1923
       DOS:  cpu time    0.0011: real time    0.0011
    CHARGE:  cpu time    2.1683: real time    2.1688
    MIXING:  cpu time    0.0031: real time    0.0031
    --------------------------------------------
      LOOP:  cpu time   31.3722: real time   31.4959

 eigenvalue-minimisations  :  6559
 total energy-change (2. order) :-0.5957496E-05  (-0.6457827E-05)
 number of electron    1675.9999234 magnetization 
 augmentation part     1014.4877796 magnetization 

 DIPCOR: dipole corrections for dipol
 direction  3 min pos   155,
 dipolmoment           0.000000      0.000000     -0.553775 electrons x Angstroem
 Tr[quadrupol]    -67503.964698

 energy correction for charged system         0.000000 eV
 dipol+quadrupol energy correction           -0.006623 eV
 added-field ion interaction        -20.593981 eV  (added to PSCEN)


 eigenvalues of (default mixing * dielectric matrix)
  average eigenvalue GAMMA=   1.2458
  1.2458

  free energy =  -0.698495092051E+03  energy without entropy=  -0.698445429756E+03


--------------------------------------------------------------------------------------------------------




--------------------------------------- Iteration    212(   3)  ---------------------------------------


    POTLOK:  cpu time    0.1094: real time    0.1098
    SETDIJ:  cpu time    0.0126: real time    0.0126
    EDDIAG:  cpu time    9.8897: real time    9.8925
  RMM-DIIS:  cpu time   14.1088: real time   14.1137
    ORTHCH:  cpu time    3.1954: real time    3.1962
       DOS:  cpu time    0.0011: real time    0.0011
    CHARGE:  cpu time    2.1687: real time    2.1692
    MIXING:  cpu time    0.0033: real time    0.0033
    --------------------------------------------
      LOOP:  cpu time   29.4890: real time   29.4983

 eigenvalue-minimisations  :  5741
 total energy-change (2. order) :-0.4810398E-05  (-0.9775625E-06)
 number of electron    1675.9999234 magnetization 
 augmentation part     1014.4870498 magnetization 

 DIPCOR: dipole corrections for dipol
 direction  3 min pos   155,
 dipolmoment           0.000000      0.000000     -0.555623 electrons x Angstroem
 Tr[quadrupol]    -67503.962398

 energy correction for charged system         0.000000 eV
 dipol+quadrupol energy correction           -0.006667 eV
 added-field ion interaction        -20.662683 eV  (added to PSCEN)


 eigenvalues of (default mixing * dielectric matrix)
  average eigenvalue GAMMA=   0.8279
  1.4836  0.1722

  free energy =  -0.698495096861E+03  energy without entropy=  -0.698445426719E+03


--------------------------------------------------------------------------------------------------------




--------------------------------------- Iteration    212(   4)  ---------------------------------------


    POTLOK:  cpu time    0.1119: real time    0.1134
    SETDIJ:  cpu time    0.0126: real time    0.0126
    EDDIAG:  cpu time    9.8764: real time    9.8795
  RMM-DIIS:  cpu time   13.2518: real time   13.7391
    ORTHCH:  cpu time    4.7762: real time    5.1391
       DOS:  cpu time    0.0127: real time    0.0127
    CHARGE:  cpu time    1.8089: real time    2.3698
    MIXING:  cpu time    0.0138: real time    0.0138
    --------------------------------------------
      LOOP:  cpu time   29.8644: real time   31.2801

 eigenvalue-minimisations  :  5485
 total energy-change (2. order) : 0.5209382E-05  (-0.3979469E-06)
 number of electron    1675.9999234 magnetization 
 augmentation part     1014.4871137 magnetization 

 DIPCOR: dipole corrections for dipol
 direction  3 min pos   155,
 dipolmoment           0.000000      0.000000     -0.554439 electrons x Angstroem
 Tr[quadrupol]    -67503.965083

 energy correction for charged system         0.000000 eV
 dipol+quadrupol energy correction           -0.006638 eV
 added-field ion interaction        -20.618649 eV  (added to PSCEN)


 eigenvalues of (default mixing * dielectric matrix)
  average eigenvalue GAMMA=   0.9886
  1.9896  0.8000  0.1761

  free energy =  -0.698495091652E+03  energy without entropy=  -0.698445428235E+03


--------------------------------------------------------------------------------------------------------




--------------------------------------- Iteration    212(   5)  ---------------------------------------


    POTLOK:  cpu time    0.1488: real time    0.1497
    SETDIJ:  cpu time    0.0313: real time    0.0313
    EDDIAG:  cpu time   10.5192: real time   10.7239
  RMM-DIIS:  cpu time   13.3449: real time   13.3501
    ORTHCH:  cpu time    3.1959: real time    3.1967
       DOS:  cpu time    0.0011: real time    0.0011
    --------------------------------------------
      LOOP:  cpu time   27.2412: real time   27.4528

 eigenvalue-minimisations  :  5419
 total energy-change (2. order) :-0.2029119E-06  (-0.2208867E-06)
 number of electron    1675.9999234 magnetization 
 augmentation part     1014.4871137 magnetization 

 DIPCOR: dipole corrections for dipol
 direction  3 min pos   155,
 dipolmoment           0.000000      0.000000     -0.554416 electrons x Angstroem
 Tr[quadrupol]    -67503.966203

 energy correction for charged system         0.000000 eV
 dipol+quadrupol energy correction           -0.006638 eV
 added-field ion interaction        -20.617789 eV  (added to PSCEN)


  free energy =  -0.698495091855E+03  energy without entropy=  -0.698445418467E+03


--------------------------------------------------------------------------------------------------------




------------------------ aborting loop because EDIFF is reached ----------------------------------------


    CHARGE:  cpu time    2.1641: real time    2.1646
    FORLOC:  cpu time    0.0905: real time    0.0905
    FORNL :  cpu time    8.3456: real time    8.3478
    STRESS:  cpu time   24.8419: real time   24.8479
    FORCOR:  cpu time    0.1653: real time    0.1653
    FORHAR:  cpu time    0.1088: real time    0.1088
    MIXING:  cpu time    0.0037: real time    0.0037
    OFIELD:  cpu time    0.0001: real time    0.0001

  Number of pair interactions contributing to vdW energy:  965763
  Edisp (eV):  -12.90279
    FORVDW:  cpu time    0.1372: real time    0.1372

  FORCE on cell =-STRESS in cart. coord.  units (eV):
  Direction    XX          YY          ZZ          XY          YZ          ZX
  --------------------------------------------------------------------------------------
  Alpha Z  3969.20574  3969.20574  3969.20574
  Ewald  684767.58695684225.04236************ -1287.95115   313.78939    86.32223
  Hartree738985.05135738538.37471************ -1176.06264   218.80892    56.22333
  E(xc)   -9623.10939 -9623.25940 -9648.66722    -0.05787     0.40954     0.14440
  Local  ************************************  2469.64852  -523.30356  -137.31900
  n-local -3241.82212 -3242.03435 -3333.07380    -2.84720    -0.11064     0.01910
  augment 13636.31919 13636.36229 13706.73628    -0.03952    -0.22739    -0.25990
  Kinetic 14410.04034 14405.43919 14671.20873    -2.66910    -9.27753    -4.94625
  Fock        0.00000     0.00000     0.00000     0.00000     0.00000     0.00000
  vdW       -16.78072   -16.60497   -14.16600     0.07479     0.00389    -0.00678
  -------------------------------------------------------------------------------------
  Total      11.37226    11.50251    -4.98308     0.09582     0.09261     0.17713
  in kB       4.32826     4.37784    -1.89655     0.03647     0.03525     0.06742
  external pressure =        2.27 kB  Pullay stress =        0.00 kB



--------------------------------------------------------------------------------------------------------



  FREE ENERGIE OF THE ION-ELECTRON SYSTEM (eV)
  ---------------------------------------------------
  free  energy   TOTEN  =      -711.39788073 eV

  energy  without entropy=     -711.34820735  energy(sigma->0) =     -711.37304404
 
 d Force = 0.4271439E-04[ 0.318E-04, 0.537E-04]  d Energy = 0.3847321E-04 0.424E-05
 d Force = 0.1111196E+01[ 0.111E+01, 0.111E+01]  d Ewald  = 0.1111195E+01 0.270E-06


--------------------------------------------------------------------------------------------------------


    POTLOK:  cpu time    0.1260: real time    0.1260


--------------------------------------------------------------------------------------------------------


 Conjugate gradient step on ions:
 trial-energy change:   -0.000038  1 .order   -0.000043   -0.000054   -0.000032
  (g-gl).g = 0.921E-04      g.g   = 0.815E-04  gl.gl    = 0.197E-03
 g(Force)  = 0.815E-04   g(Stress)= 0.000E+00 ortho     = 0.109E-04
 gamma     =   0.46668
 trial     =   0.61972
 opt step  =   1.51752  (harmonic =   1.51752) maximal distance =0.00165927
 next E    =  -711.397908   (d E  =  -0.00007)


--------------------------------------------------------------------------------------------------------


  
 reached required accuracy - stopping structural energy minimisation
     LOOP+:  cpu time  208.8767: real time  210.6674
    4ORBIT:  cpu time    0.0000: real time    0.0000

 total amount of memory used by VASP MPI-rank0   292833. kBytes
=======================================================================

   base      :      30000. kBytes
   nonlr-proj:      54084. kBytes
   fftplans  :       7568. kBytes
   grid      :      40325. kBytes
   one-center:       2721. kBytes
   wavefun   :     158135. kBytes
 
  
  
 General timing and accounting informations for this job:
 ========================================================
  
                  Total CPU time used (sec):    73330.969
                            User time (sec):    73193.981
                          System time (sec):      136.984
                         Elapsed time (sec):    73451.244
  
                   Maximum memory used (kb):      654304.
                   Average memory used (kb):           0.
  
                          Minor page faults:      4569061
                          Major page faults:            0
                 Voluntary context switches:        19776
