 vasp.5.4.4.18Apr17-6-g9f103f2a35 (build Jun 30 2017 19:19:18) complex          
  
 executed on         MareNostrum4 date 2022.04.13  16:55:17
 running on   48 total cores
 distrk:  each k-point on   48 cores,    1 groups
 distr:  one band on NCORES_PER_BAND=   1 cores,   48 groups


--------------------------------------------------------------------------------------------------------


 INCAR:
 POTCAR:    PAW_PBE Cu 22Jun2005                  

 ----------------------------------------------------------------------------- 
|                                                                             |
|           W    W    AA    RRRRR   N    N  II  N    N   GGGG   !!!           |
|           W    W   A  A   R    R  NN   N  II  NN   N  G    G  !!!           |
|           W    W  A    A  R    R  N N  N  II  N N  N  G       !!!           |
|           W WW W  AAAAAA  RRRRR   N  N N  II  N  N N  G  GGG   !            |
|           WW  WW  A    A  R   R   N   NN  II  N   NN  G    G                |
|           W    W  A    A  R    R  N    N  II  N    N   GGGG   !!!           |
|                                                                             |
|      For optimal performance we recommend to set                            |
|        NCORE= 4 - approx SQRT( number of cores)                             |
|      NCORE specifies how many cores store one orbital (NPAR=cpu/NCORE).     |
|      This setting can  greatly improve the performance of VASP for DFT.     |
|      The default,   NCORE=1            might be grossly inefficient         |
|      on modern multi-core architectures or massively parallel machines.     |
|      Do your own testing !!!!                                               |
|      Unfortunately you need to use the default for GW and RPA calculations. |
|      (for HF NCORE is supported but not extensively tested yet)             |
|                                                                             |
 ----------------------------------------------------------------------------- 

 POTCAR:    PAW_PBE Cu 22Jun2005                  
  local pseudopotential read in
  partial core-charges read in
  partial kinetic energy density read in
  atomic valenz-charges read in
  non local Contribution for L=           2  read in
    real space projection operators read in
  non local Contribution for L=           2  read in
    real space projection operators read in
  non local Contribution for L=           0  read in
    real space projection operators read in
  non local Contribution for L=           0  read in
    real space projection operators read in
  non local Contribution for L=           1  read in
    real space projection operators read in
  non local Contribution for L=           1  read in
    real space projection operators read in
    PAW grid and wavefunctions read in
 
   number of l-projection  operators is LMAX  =           6
   number of lm-projection operators is LMMAX =          18
 
 Optimization of the real space projectors (new method)

 maximal supplied QI-value         = 16.25
 optimisation between [QCUT,QGAM] = [ 10.73, 21.61] = [ 32.22,130.83] Ry 
 Optimized for a Real-space Cutoff    1.42 Angstroem

   l    n(q)    QCUT    max X(q) W(low)/X(q) W(high)/X(q)  e(spline) 
   2      8    10.726     4.610    0.15E-03    0.25E-03    0.14E-06
   2      8    10.726     8.522    0.25E-03    0.43E-03    0.27E-06
   0      9    10.726    51.609    0.94E-04    0.10E-03    0.12E-06
   0      9    10.726    27.747    0.85E-04    0.96E-04    0.11E-06
   1      9    10.726    20.408    0.25E-03    0.14E-03    0.12E-06
   1      9    10.726    13.425    0.22E-03    0.13E-03    0.11E-06
  PAW_PBE Cu 22Jun2005                  :
 energy of atom  1       EATOM=-1390.9808
 kinetic energy error for atom=    0.0097 (will be added to EATOM!!)
 
 
 POSCAR: Cu                                      
  positions in cartesian coordinates
  No initial velocities read in
 exchange correlation table for  LEXCH =        8
   RHO(1)=    0.500       N(1)  =     2000
   RHO(2)=  100.500       N(2)  =     4000
 


--------------------------------------------------------------------------------------------------------


 ion  position               nearest neighbor table
   1  0.000  0.000  0.000-   2 2.52   3 2.52   4 2.52  28 2.52  10 2.52  35 2.52  70 2.52  40 2.52
                            47 2.52
   2  0.000  0.167  0.000-   3 2.52   1 2.52   8 2.52  28 2.52   5 2.52  27 2.52  39 2.52  61 2.52
                            40 2.52
   3  0.167  0.167  0.000-   2 2.52   1 2.52   8 2.52  14 2.52   4 2.52  17 2.52  38 2.52  40 2.52
                            37 2.52
   4  0.167  0.000  0.000-  10 2.52  14 2.52   1 2.52  13 2.52   3 2.52  11 2.52  47 2.52  37 2.52
                            46 2.52
   5  0.000  0.333  0.000-   6 2.52   8 2.52  32 2.52   7 2.52  27 2.52   2 2.52  62 2.52  44 2.52
                            39 2.52
   6  0.000  0.500  0.000-  12 2.52   5 2.52   7 2.52   9 2.52  32 2.52  31 2.52  43 2.52  65 2.52
                            44 2.52
   7  0.167  0.500  0.000-  18 2.52   8 2.52  21 2.52   6 2.52   5 2.52  12 2.52  42 2.52  44 2.52
                            41 2.52
   8  0.167  0.333  0.000-   7 2.52   2 2.52  18 2.52   3 2.52   5 2.52  17 2.52  39 2.52  41 2.52
                            38 2.52
   9  0.000  0.667  0.000-  10 2.52  12 2.52  36 2.52  31 2.52   6 2.52  11 2.52  66 2.52  48 2.52
                            43 2.52
  10  0.000  0.833  0.000-   4 2.52   9 2.52  11 2.52   1 2.52  36 2.52  35 2.52  47 2.52  69 2.52
                            48 2.52
  11  0.167  0.833  0.000-  22 2.52  13 2.52  12 2.52  10 2.52   4 2.52   9 2.52  46 2.52  48 2.52
                            45 2.52
  12  0.167  0.667  0.000-   6 2.52  11 2.52  22 2.52   9 2.52  21 2.52   7 2.52  43 2.52  45 2.52
                            42 2.52
  13  0.333  0.000  0.000-  15 2.52  22 2.52  11 2.52  16 2.52   4 2.52  14 2.52  46 2.52  52 2.52
                            59 2.52
  14  0.333  0.167  0.000-   4 2.52  17 2.52  15 2.52   3 2.52  13 2.52  20 2.52  37 2.52  51 2.52
                            52 2.52
  15  0.500  0.167  0.000-  13 2.52  20 2.52  14 2.52  26 2.52  16 2.52  29 2.52  50 2.52  52 2.52
                            49 2.52
  16  0.500  0.000  0.000-  26 2.52  25 2.52  13 2.52  23 2.52  15 2.52  22 2.52  59 2.52  49 2.52
                            58 2.52
  17  0.333  0.333  0.000-  14 2.52  20 2.52   8 2.52  19 2.52  18 2.52   3 2.52  38 2.52  56 2.52
                            51 2.52
  18  0.333  0.500  0.000-   7 2.52  21 2.52   8 2.52  17 2.52  24 2.52  19 2.52  41 2.52  55 2.52
                            56 2.52
  19  0.500  0.500  0.000-  30 2.52  33 2.52  20 2.52  17 2.52  24 2.52  18 2.52  54 2.52  56 2.52
                            53 2.52
  20  0.500  0.333  0.000-  19 2.52  30 2.52  15 2.52  29 2.52  17 2.52  14 2.52  51 2.52  53 2.52
                            50 2.52
  21  0.333  0.667  0.000-  18 2.52   7 2.52  24 2.52  12 2.52  23 2.52  22 2.52  42 2.52  60 2.52
                            55 2.52
  22  0.333  0.833  0.000-  11 2.52  13 2.52  12 2.52  16 2.52  21 2.52  23 2.52  45 2.52  59 2.52
                            60 2.52
  23  0.500  0.833  0.000-  34 2.52  25 2.52  24 2.52  16 2.52  21 2.52  22 2.52  58 2.52  60 2.52
                            57 2.52
  24  0.500  0.667  0.000-  23 2.52  34 2.52  33 2.52  21 2.52  18 2.52  19 2.52  55 2.52  57 2.52
                            54 2.52
  25  0.667  0.000  0.000-  23 2.52  27 2.52  34 2.52  16 2.52  28 2.52  26 2.52  58 2.52  64 2.52
                            71 2.52
  26  0.667  0.167  0.000-  16 2.52  29 2.52  27 2.52  15 2.52  25 2.52  32 2.52  49 2.52  63 2.52
                            64 2.52
  27  0.833  0.167  0.000-  25 2.52  32 2.52  26 2.52  28 2.52   5 2.52   2 2.52  62 2.52  64 2.52
                            61 2.52
  28  0.833  0.000  0.000-  35 2.52   1 2.52  25 2.52  27 2.52  34 2.52   2 2.52  71 2.52  61 2.52
                            70 2.52
  29  0.667  0.333  0.000-  31 2.52  26 2.52  20 2.52  32 2.52  30 2.52  15 2.52  50 2.52  68 2.52
                            63 2.52
  30  0.667  0.500  0.000-  19 2.52  20 2.52  33 2.52  31 2.52  29 2.52  36 2.52  53 2.52  67 2.52
                            68 2.52
  31  0.833  0.500  0.000-  36 2.52  29 2.52  30 2.52  32 2.52   9 2.52   6 2.52  66 2.52  68 2.52
                            65 2.52
  32  0.833  0.333  0.000-  27 2.52   5 2.52  29 2.52   6 2.52  31 2.52  26 2.52  63 2.52  65 2.52
                            62 2.52
  33  0.667  0.667  0.000-  19 2.52  30 2.52  35 2.52  24 2.52  36 2.52  34 2.52  54 2.52  72 2.52
                            67 2.52
  34  0.667  0.833  0.000-  23 2.52  25 2.52  24 2.52  35 2.52  28 2.52  33 2.52  57 2.52  71 2.52
                            72 2.52
  35  0.833  0.833  0.000-  28 2.52  33 2.52  34 2.52   1 2.52  36 2.52  10 2.52  70 2.52  72 2.52
                            69 2.52
  36  0.833  0.667  0.000-  31 2.52   9 2.52  33 2.52  30 2.52  10 2.52  35 2.52  67 2.52  69 2.52
                            66 2.52
  37  0.222  0.111  0.097-  75 2.52  76 2.52  74 2.52  51 2.52  52 2.52  38 2.52  46 2.52  40 2.52
                            47 2.52  14 2.52   4 2.52   3 2.52
  38  0.222  0.278  0.097-  76 2.52  73 2.52  79 2.52  37 2.52  51 2.52  40 2.52  56 2.52  39 2.52
                            41 2.52   3 2.52  17 2.52   8 2.52
  39  0.056  0.278  0.097-  73 2.52 100 2.52  78 2.52  40 2.52  61 2.52  62 2.52  38 2.52  41 2.52
                            44 2.52   2 2.52   8 2.52   5 2.52
  40  0.056  0.111  0.097-  74 2.52  99 2.52  73 2.52  39 2.52  61 2.52  38 2.52  70 2.52  37 2.52
                            47 2.52   3 2.52   1 2.52   2 2.52
  41  0.222  0.444  0.097-  79 2.52  80 2.52  78 2.52  55 2.52  56 2.52  42 2.52  38 2.52  44 2.52
                            39 2.52  18 2.52   8 2.52   7 2.52
  42  0.222  0.611  0.097-  80 2.52  77 2.52  83 2.52  41 2.52  55 2.52  44 2.52  60 2.52  43 2.52
                            45 2.52   7 2.52  21 2.52  12 2.52
  43  0.056  0.611  0.097-  77 2.52 104 2.52  82 2.52  44 2.52  65 2.52  66 2.52  42 2.52  48 2.52
                            45 2.52   6 2.52  12 2.52   9 2.52
  44  0.056  0.444  0.097-  78 2.52 103 2.52  77 2.52  43 2.52  65 2.52  42 2.52  62 2.52  41 2.52
                            39 2.52   7 2.52   5 2.52   6 2.52
  45  0.222  0.778  0.097-  83 2.52  84 2.52  82 2.52  59 2.52  60 2.52  46 2.52  42 2.52  48 2.52
                            43 2.52  22 2.52  12 2.52  11 2.52
  46  0.222  0.944  0.097-  84 2.52  81 2.52  75 2.52  45 2.52  59 2.52  48 2.52  52 2.52  47 2.52
                            37 2.52  11 2.52  13 2.52   4 2.52
  47  0.056  0.944  0.097-  81 2.52 108 2.52  74 2.52  69 2.52  48 2.52  70 2.52  46 2.52  40 2.52
                            37 2.52  10 2.52   4 2.52   1 2.52
  48  0.056  0.778  0.097-  82 2.52 107 2.52  81 2.52  47 2.52  69 2.52  46 2.52  66 2.52  45 2.52
                            43 2.52  11 2.52   9 2.52  10 2.52
  49  0.556  0.111  0.097-  87 2.52  88 2.52  86 2.52  63 2.52  64 2.52  50 2.52  58 2.52  52 2.52
                            59 2.52  26 2.52  16 2.52  15 2.52
  50  0.556  0.278  0.097-  88 2.52  85 2.52  91 2.52  49 2.52  63 2.52  52 2.52  68 2.52  51 2.52
                            53 2.52  15 2.52  29 2.52  20 2.52
  51  0.389  0.278  0.097-  85 2.52  76 2.52  90 2.52  37 2.52  52 2.52  38 2.52  50 2.52  56 2.52
                            53 2.52  14 2.52  20 2.52  17 2.52
  52  0.389  0.111  0.097-  86 2.52  75 2.52  85 2.52  51 2.52  37 2.52  50 2.52  46 2.52  49 2.52
                            59 2.52  15 2.52  13 2.52  14 2.52
  53  0.556  0.444  0.097-  91 2.52  92 2.52  90 2.52  67 2.52  68 2.52  54 2.52  50 2.52  56 2.52
                            51 2.52  30 2.52  20 2.52  19 2.52
  54  0.556  0.611  0.097-  92 2.52  89 2.52  95 2.52  53 2.52  67 2.52  56 2.52  72 2.52  55 2.52
                            57 2.52  19 2.52  33 2.52  24 2.52
  55  0.389  0.611  0.097-  89 2.52  80 2.52  94 2.52  41 2.52  56 2.52  42 2.52  54 2.52  60 2.52
                            57 2.52  18 2.52  24 2.52  21 2.52
  56  0.389  0.444  0.097-  90 2.52  79 2.52  89 2.52  55 2.52  41 2.52  54 2.52  38 2.52  53 2.52
                            51 2.52  19 2.52  17 2.52  18 2.52
  57  0.556  0.778  0.097-  95 2.52  96 2.52  94 2.52  71 2.52  72 2.52  58 2.52  54 2.52  60 2.52
                            55 2.52  34 2.52  24 2.52  23 2.52
  58  0.556  0.944  0.097-  96 2.52  93 2.52  87 2.52  57 2.52  71 2.52  60 2.52  64 2.52  59 2.52
                            49 2.52  23 2.52  25 2.52  16 2.52
  59  0.389  0.944  0.097-  93 2.52  84 2.52  86 2.52  45 2.52  60 2.52  46 2.52  58 2.52  52 2.52
                            49 2.52  22 2.52  16 2.52  13 2.52
  60  0.389  0.778  0.097-  94 2.52  83 2.52  93 2.52  59 2.52  45 2.52  58 2.52  42 2.52  57 2.52
                            55 2.52  23 2.52  21 2.52  22 2.52
  61  0.889  0.111  0.097-  99 2.52 100 2.52  98 2.52  39 2.52  40 2.52  62 2.52  70 2.52  64 2.52
                            71 2.52   2 2.52  28 2.52  27 2.52
  62  0.889  0.278  0.097- 100 2.52  97 2.52 103 2.52  61 2.52  39 2.52  64 2.52  44 2.52  63 2.52
                            65 2.52  27 2.52   5 2.52  32 2.52
  63  0.722  0.278  0.097-  97 2.52  88 2.52 102 2.52  64 2.52  49 2.52  50 2.52  62 2.52  65 2.52
                            68 2.52  26 2.52  32 2.52  29 2.52
  64  0.722  0.111  0.097-  98 2.52  87 2.52  97 2.52  63 2.52  49 2.52  62 2.52  58 2.52  61 2.52
                            71 2.52  27 2.52  25 2.52  26 2.52
  65  0.889  0.444  0.097- 103 2.52 104 2.52 102 2.52  43 2.52  44 2.52  66 2.52  62 2.52  68 2.52
                            63 2.52   6 2.52  32 2.52  31 2.52
  66  0.889  0.611  0.097- 104 2.52 101 2.52 107 2.52  65 2.52  43 2.52  68 2.52  48 2.52  67 2.52
                            69 2.52  31 2.52   9 2.52  36 2.52
  67  0.722  0.611  0.097- 101 2.52  92 2.52 106 2.52  68 2.52  53 2.52  54 2.52  66 2.52  72 2.52
                            69 2.52  30 2.52  36 2.52  33 2.52
  68  0.722  0.444  0.097- 102 2.52  91 2.52 101 2.52  67 2.52  53 2.52  66 2.52  50 2.52  65 2.52
                            63 2.52  31 2.52  29 2.52  30 2.52
  69  0.889  0.778  0.097- 107 2.52 108 2.52 106 2.52  47 2.52  48 2.52  70 2.52  66 2.52  72 2.52
                            67 2.52  10 2.52  36 2.52  35 2.52
  70  0.889  0.944  0.097- 108 2.52 105 2.52  99 2.52  69 2.52  47 2.52  72 2.52  40 2.52  71 2.52
                            61 2.52  35 2.52   1 2.52  28 2.52
  71  0.722  0.944  0.097- 105 2.52  96 2.52  98 2.52  72 2.52  57 2.52  58 2.52  70 2.52  64 2.52
                            61 2.52  34 2.52  28 2.52  25 2.52
  72  0.722  0.778  0.097- 106 2.52  95 2.52 105 2.52  71 2.52  57 2.52  70 2.52  54 2.52  69 2.52
                            67 2.52  35 2.52  33 2.52  34 2.52
  73  0.111  0.222  0.195-  39 2.52  38 2.52  40 2.52  79 2.52  76 2.52  78 2.52  74 2.52 100 2.52
                            99 2.52 116 2.52 110 2.52 111 2.52
  74  0.111  0.056  0.195-  40 2.52  47 2.52  37 2.52  81 2.52  75 2.52 108 2.52  76 2.52  99 2.52
                            73 2.52 109 2.52 111 2.52 112 2.52
  75  0.278  0.056  0.195-  37 2.52  52 2.52  46 2.52  84 2.52  81 2.52  74 2.52  86 2.52  85 2.52
                            76 2.52 112 2.52 122 2.52 121 2.52
  76  0.278  0.222  0.195-  38 2.52  51 2.52  37 2.52  79 2.52  73 2.52  90 2.52  74 2.52  85 2.52
                            75 2.52 125 2.52 111 2.52 122 2.52
  77  0.111  0.556  0.195-  43 2.52  42 2.52  44 2.52  83 2.52  80 2.52  82 2.52  78 2.52 104 2.52
                           103 2.52 120 2.52 114 2.52 115 2.52
  78  0.111  0.389  0.195-  44 2.52  39 2.52  41 2.52  73 2.52  79 2.52 100 2.52  80 2.52 103 2.52
                            77 2.52 113 2.52 115 2.52 116 2.52
  79  0.278  0.389  0.195-  41 2.52  56 2.52  38 2.52  76 2.52  73 2.52  78 2.52  90 2.52  89 2.52
                            80 2.52 116 2.52 126 2.52 125 2.52
  80  0.278  0.556  0.195-  42 2.52  55 2.52  41 2.52  83 2.52  77 2.52  94 2.52  78 2.52  89 2.52
                            79 2.52 115 2.52 129 2.52 126 2.52
  81  0.111  0.889  0.195-  47 2.52  46 2.52  48 2.52  75 2.52  84 2.52  74 2.52  82 2.52 108 2.52
                           107 2.52 112 2.52 118 2.52 119 2.52
  82  0.111  0.722  0.195-  48 2.52  43 2.52  45 2.52  77 2.52  83 2.52 104 2.52  84 2.52 107 2.52
                            81 2.52 117 2.52 119 2.52 120 2.52
  83  0.278  0.722  0.195-  45 2.52  60 2.52  42 2.52  77 2.52  80 2.52  82 2.52  94 2.52  93 2.52
                            84 2.52 120 2.52 130 2.52 129 2.52
  84  0.278  0.889  0.195-  46 2.52  59 2.52  45 2.52  75 2.52  81 2.52  86 2.52  82 2.52  93 2.52
                            83 2.52 119 2.52 121 2.52 130 2.52
  85  0.444  0.222  0.195-  51 2.52  50 2.52  52 2.52  91 2.52  88 2.52  90 2.52  86 2.52  76 2.52
                            75 2.52 128 2.52 122 2.52 123 2.52
  86  0.444  0.056  0.195-  52 2.52  59 2.52  49 2.52  93 2.52  87 2.52  84 2.52  88 2.52  75 2.52
                            85 2.52 121 2.52 123 2.52 124 2.52
  87  0.611  0.056  0.195-  49 2.52  64 2.52  58 2.52  96 2.52  93 2.52  86 2.52  98 2.52  97 2.52
                            88 2.52 124 2.52 134 2.52 133 2.52
  88  0.611  0.222  0.195-  50 2.52  63 2.52  49 2.52  91 2.52  85 2.52 102 2.52  86 2.52  97 2.52
                            87 2.52 137 2.52 123 2.52 134 2.52
  89  0.444  0.556  0.195-  55 2.52  54 2.52  56 2.52  95 2.52  92 2.52  94 2.52  90 2.52  80 2.52
                            79 2.52 132 2.52 126 2.52 127 2.52
  90  0.444  0.389  0.195-  56 2.52  51 2.52  53 2.52  85 2.52  91 2.52  76 2.52  92 2.52  79 2.52
                            89 2.52 125 2.52 127 2.52 128 2.52
  91  0.611  0.389  0.195-  53 2.52  68 2.52  50 2.52  88 2.52  85 2.52  90 2.52 102 2.52 101 2.52
                            92 2.52 128 2.52 138 2.52 137 2.52
  92  0.611  0.556  0.195-  54 2.52  67 2.52  53 2.52  95 2.52  89 2.52 106 2.52  90 2.52 101 2.52
                            91 2.52 127 2.52 141 2.52 138 2.52
  93  0.444  0.889  0.195-  59 2.52  58 2.52  60 2.52  87 2.52  96 2.52  86 2.52  94 2.52  84 2.52
                            83 2.52 124 2.52 130 2.52 131 2.52
  94  0.444  0.722  0.195-  60 2.52  55 2.52  57 2.52  89 2.52  95 2.52  80 2.52  96 2.52  83 2.52
                            93 2.52 129 2.52 131 2.52 132 2.52
  95  0.611  0.722  0.195-  57 2.52  72 2.52  54 2.52  89 2.52  92 2.52  94 2.52 106 2.52 105 2.52
                            96 2.52 132 2.52 142 2.52 141 2.52
  96  0.611  0.889  0.195-  58 2.52  71 2.52  57 2.52  87 2.52  93 2.52  98 2.52  94 2.52 105 2.52
                            95 2.52 131 2.52 133 2.52 142 2.52
  97  0.778  0.222  0.195-  63 2.52  62 2.52  64 2.52 103 2.52 100 2.52 102 2.52  98 2.52  88 2.52
                            87 2.52 140 2.52 134 2.52 135 2.52
  98  0.778  0.056  0.195-  64 2.52  71 2.52  61 2.52 105 2.52  99 2.52  96 2.52 100 2.52  87 2.52
                            97 2.52 133 2.52 135 2.52 136 2.52
  99  0.944  0.056  0.195-  61 2.52  40 2.52  70 2.52 105 2.52 108 2.52  98 2.52  74 2.52 100 2.52
                            73 2.52 136 2.52 110 2.52 109 2.52
 100  0.944  0.222  0.195-  62 2.52  39 2.52  61 2.52 103 2.52  97 2.52  78 2.52  98 2.52  73 2.52
                            99 2.52 113 2.52 135 2.52 110 2.52
 101  0.778  0.556  0.195-  67 2.52  66 2.52  68 2.52 107 2.52 104 2.52 106 2.52 102 2.52  92 2.52
                            91 2.52 144 2.52 138 2.52 139 2.52
 102  0.778  0.389  0.195-  68 2.52  63 2.52  65 2.52  97 2.52 103 2.52  88 2.52 104 2.52  91 2.52
                           101 2.52 137 2.52 139 2.52 140 2.52
 103  0.944  0.389  0.195-  65 2.52  44 2.52  62 2.52  97 2.52 100 2.52 102 2.52  78 2.52  77 2.52
                           104 2.52 140 2.52 114 2.52 113 2.52
 104  0.944  0.556  0.195-  66 2.52  43 2.52  65 2.52 107 2.52 101 2.52  82 2.52 102 2.52  77 2.52
                           103 2.52 117 2.52 139 2.52 114 2.52
 105  0.778  0.889  0.195-  71 2.52  70 2.52  72 2.52  99 2.52 108 2.52  98 2.52 106 2.52  96 2.52
                            95 2.52 136 2.52 142 2.52 143 2.52
 106  0.778  0.722  0.195-  72 2.52  67 2.52  69 2.52 101 2.52 107 2.52  92 2.52 108 2.52  95 2.52
                           105 2.52 141 2.52 143 2.52 144 2.52
 107  0.944  0.722  0.195-  69 2.52  48 2.52  66 2.52 101 2.52 104 2.52 106 2.52  82 2.52  81 2.52
                           108 2.52 144 2.52 118 2.52 117 2.52
 108  0.944  0.889  0.195-  70 2.52  47 2.52  69 2.52  99 2.52 105 2.52  74 2.52 106 2.52  81 2.52
                           107 2.52 109 2.52 143 2.52 118 2.52
 109  0.000  0.000  0.292- 110 2.52 111 2.52 112 2.52 136 2.52 118 2.52 143 2.52 108 2.52  74 2.52
                            99 2.52
 110  0.000  0.167  0.292- 111 2.52 109 2.52 116 2.52 136 2.52 113 2.52 135 2.52  73 2.52  99 2.52
                           100 2.52
 111  0.167  0.167  0.292- 110 2.52 109 2.52 116 2.52 122 2.52 112 2.52 125 2.52  76 2.52  74 2.52
                            73 2.52
 112  0.167  0.000  0.292- 118 2.52 122 2.52 109 2.52 121 2.52 111 2.52 119 2.52  81 2.52  75 2.52
                            74 2.52
 113  0.000  0.333  0.292- 114 2.52 116 2.52 140 2.52 115 2.52 135 2.52 110 2.52 100 2.52  78 2.52
                           103 2.52
 114  0.000  0.500  0.292- 120 2.52 113 2.52 115 2.52 117 2.52 140 2.52 139 2.52  77 2.52 103 2.52
                           104 2.52
 115  0.167  0.500  0.292- 126 2.52 116 2.52 129 2.52 114 2.52 113 2.52 120 2.52  80 2.52  78 2.52
                            77 2.52
 116  0.167  0.333  0.292- 115 2.52 110 2.52 126 2.52 111 2.52 113 2.52 125 2.52  73 2.52  79 2.52
                            78 2.52
 117  0.000  0.667  0.292- 118 2.52 120 2.52 144 2.52 139 2.52 114 2.52 119 2.52 104 2.52  82 2.52
                           107 2.52
 118  0.000  0.833  0.292- 112 2.52 117 2.52 119 2.52 109 2.52 144 2.52 143 2.52  81 2.52 107 2.52
                           108 2.52
 119  0.167  0.833  0.292- 130 2.52 121 2.52 120 2.52 118 2.52 112 2.52 117 2.52  84 2.52  82 2.52
                            81 2.52
 120  0.167  0.667  0.292- 114 2.52 119 2.52 130 2.52 117 2.52 129 2.52 115 2.52  77 2.52  83 2.52
                            82 2.52
 121  0.333  0.000  0.292- 123 2.52 130 2.52 119 2.52 124 2.52 112 2.52 122 2.52  84 2.52  86 2.52
                            75 2.52
 122  0.333  0.167  0.292- 112 2.52 125 2.52 123 2.52 111 2.52 121 2.52 128 2.52  75 2.52  85 2.52
                            76 2.52
 123  0.500  0.167  0.292- 121 2.52 128 2.52 122 2.52 134 2.52 124 2.52 137 2.52  88 2.52  86 2.52
                            85 2.52
 124  0.500  0.000  0.292- 134 2.52 133 2.52 121 2.52 131 2.52 123 2.52 130 2.52  93 2.52  87 2.52
                            86 2.52
 125  0.333  0.333  0.292- 122 2.52 128 2.52 116 2.52 127 2.52 126 2.52 111 2.52  76 2.52  90 2.52
                            79 2.52
 126  0.333  0.500  0.292- 115 2.52 129 2.52 116 2.52 125 2.52 132 2.52 127 2.52  79 2.52  89 2.52
                            80 2.52
 127  0.500  0.500  0.292- 138 2.52 141 2.52 128 2.52 125 2.52 132 2.52 126 2.52  92 2.52  90 2.52
                            89 2.52
 128  0.500  0.333  0.292- 127 2.52 138 2.52 123 2.52 137 2.52 125 2.52 122 2.52  85 2.52  91 2.52
                            90 2.52
 129  0.333  0.667  0.292- 126 2.52 115 2.52 132 2.52 120 2.52 131 2.52 130 2.52  80 2.52  94 2.52
                            83 2.52
 130  0.333  0.833  0.292- 119 2.52 121 2.52 120 2.52 124 2.52 129 2.52 131 2.52  83 2.52  93 2.52
                            84 2.52
 131  0.500  0.833  0.292- 142 2.52 133 2.52 132 2.52 124 2.52 129 2.52 130 2.52  96 2.52  94 2.52
                            93 2.52
 132  0.500  0.667  0.292- 131 2.52 142 2.52 141 2.52 129 2.52 126 2.52 127 2.52  89 2.52  95 2.52
                            94 2.52
 133  0.667  0.000  0.292- 131 2.52 135 2.52 142 2.52 124 2.52 136 2.52 134 2.52  96 2.52  98 2.52
                            87 2.52
 134  0.667  0.167  0.292- 124 2.52 137 2.52 135 2.52 123 2.52 133 2.52 140 2.52  87 2.52  97 2.52
                            88 2.52
 135  0.833  0.167  0.292- 133 2.52 140 2.52 134 2.52 136 2.52 113 2.52 110 2.52 100 2.52  98 2.52
                            97 2.52
 136  0.833  0.000  0.292- 143 2.52 109 2.52 133 2.52 135 2.52 142 2.52 110 2.52 105 2.52  99 2.52
                            98 2.52
 137  0.667  0.333  0.292- 139 2.52 134 2.52 128 2.52 140 2.52 138 2.52 123 2.52  88 2.52 102 2.52
                            91 2.52
 138  0.667  0.500  0.292- 127 2.52 128 2.52 141 2.52 139 2.52 137 2.52 144 2.52  91 2.52 101 2.52
                            92 2.52
 139  0.833  0.500  0.292- 144 2.52 137 2.52 138 2.52 140 2.52 117 2.52 114 2.52 104 2.52 102 2.52
                           101 2.52
 140  0.833  0.333  0.292- 135 2.52 113 2.52 137 2.52 114 2.52 139 2.52 134 2.52  97 2.52 103 2.52
                           102 2.52
 141  0.667  0.667  0.292- 127 2.52 138 2.52 143 2.52 132 2.52 144 2.52 142 2.52  92 2.52 106 2.52
                            95 2.52
 142  0.667  0.833  0.292- 131 2.52 133 2.52 132 2.52 143 2.52 136 2.52 141 2.52  95 2.52 105 2.52
                            96 2.52
 143  0.833  0.833  0.292- 136 2.52 141 2.52 142 2.52 109 2.52 144 2.52 118 2.52 108 2.52 106 2.52
                           105 2.52
 144  0.833  0.667  0.292- 139 2.52 117 2.52 141 2.52 138 2.52 118 2.52 143 2.52 101 2.52 107 2.52
                           106 2.52
 
  LATTYP: Found a hexagonal cell.
 ALAT       =    15.1479005815
 C/A-ratio  =     1.3984776241
  
  Lattice vectors:
  
 A1 = (  15.1479005814,   0.0000000000,   0.0000000000)
 A2 = (  -7.5739502907,  13.1184667176,   0.0000000000)
 A3 = (   0.0000000000,   0.0000000000,  21.1840000153)


Analysis of symmetry for initial positions (statically):
=====================================================================
 Subroutine PRICEL returns following result:
 
  LATTYP: Found a hexagonal cell.
 ALAT       =     2.5246500969
 C/A-ratio  =     8.3908657447
  
  Lattice vectors:
  
 A1 = (   2.5246500968,   0.0000000000,   0.0000000000)
 A2 = (  -1.2623250484,   2.1864111196,   0.0000000000)
 A3 = (   0.0000000000,   0.0000000000,  21.1840000153)
 
  36 primitive cells build up your supercell.
 

 Routine SETGRP: Setting up the symmetry group for a 
 hexagonal supercell.


 Subroutine GETGRP returns: Found 12 space group operations
 (whereof  6 operations were pure point group operations)
 out of a pool of 24 trial point group operations.


The static configuration has the point symmetry C_3v.
 The point group associated with its full space group is D_3d.


Analysis of symmetry for dynamics (positions and initial velocities):
=====================================================================
 Subroutine PRICEL returns following result:
 
  LATTYP: Found a hexagonal cell.
 ALAT       =     2.5246500969
 C/A-ratio  =     8.3908657447
  
  Lattice vectors:
  
 A1 = (   2.5246500968,   0.0000000000,   0.0000000000)
 A2 = (  -1.2623250484,   2.1864111196,   0.0000000000)
 A3 = (   0.0000000000,   0.0000000000,  21.1840000153)
 
  36 primitive cells build up your supercell.
 

 Routine SETGRP: Setting up the symmetry group for a 
 hexagonal supercell.


 Subroutine GETGRP returns: Found 12 space group operations
 (whereof  6 operations were pure point group operations)
 out of a pool of 24 trial point group operations.


The dynamic configuration has the point symmetry C_3v.
 The point group associated with its full space group is D_3d.


Analysis of constrained symmetry for selective dynamics:
=====================================================================
 Subroutine PRICEL returns following result:
 
  LATTYP: Found a hexagonal cell.
 ALAT       =     2.5246500969
 C/A-ratio  =     8.3908657447
  
  Lattice vectors:
  
 A1 = (   2.5246500968,   0.0000000000,   0.0000000000)
 A2 = (  -1.2623250484,   2.1864111196,   0.0000000000)
 A3 = (   0.0000000000,   0.0000000000,  21.1840000153)
 
  36 primitive cells build up your supercell.
 

 Routine SETGRP: Setting up the symmetry group for a 
 hexagonal supercell.


 Subroutine GETGRP returns: Found  6 space group operations
 (whereof  6 operations were pure point group operations)
 out of a pool of 24 trial point group operations.


The constrained configuration has the point symmetry C_3v.


 Subroutine INISYM returns: Found  6 space group operations
 (whereof  6 operations are pure point group operations),
 and found    36 'primitive' translations

 
 
 KPOINTS: K-POINTS                                

Automatic generation of k-mesh.
Space group operators:
 irot       det(A)        alpha          n_x          n_y          n_z        tau_x        tau_y        tau_z
    1     1.000000     0.000001     1.000000     0.000000     0.000000     0.000000     0.000000     0.000000
    2     1.000000   120.000000     0.000000     0.000000    -1.000000     0.000000     0.000000     0.000000
    3     1.000000   120.000000     0.000000     0.000000     1.000000     0.000000     0.000000     0.000000
    4    -1.000000   180.000000     1.000000     0.000000     0.000000     0.000000     0.000000     0.000000
    5    -1.000000   180.000000     0.500000    -0.866025     0.000000     0.000000     0.000000     0.000000
    6    -1.000000   180.000000    -0.500000    -0.866025     0.000000     0.000000     0.000000     0.000000
 
 Subroutine IBZKPT returns following result:
 ===========================================
 
 Found      3 irreducible k-points:
 
 Following reciprocal coordinates:
            Coordinates               Weight
  0.000000  0.000000  0.000000      1.000000
  0.333333 -0.000000  0.000000      6.000000
  0.333333  0.333333  0.000000      2.000000
 
 Following cartesian coordinates:
            Coordinates               Weight
  0.000000  0.000000  0.000000      1.000000
  0.022005  0.012705  0.000000      6.000000
  0.022005  0.038114  0.000000      2.000000
 


--------------------------------------------------------------------------------------------------------




 Dimension of arrays:
   k-points           NKPTS =      3   k-points in BZ     NKDIM =      3   number of bands    NBANDS=    960
   number of dos      NEDOS =    301   number of ions     NIONS =    144
   non local maximal  LDIM  =      6   non local SUM 2l+1 LMDIM =     18
   total plane-waves  NPLWV = 716800
   max r-space proj   IRMAX =   2102   max aug-charges    IRDMAX=   5131
   dimension x,y,z NGX =    80 NGY =   80 NGZ =  112
   dimension x,y,z NGXF=   160 NGYF=  160 NGZF=  224
   support grid    NGXF=   160 NGYF=  160 NGZF=  224
   ions per type =             144
   NGX,Y,Z   is equivalent  to a cutoff of   8.78,  8.78,  8.79 a.u.
   NGXF,Y,Z  is equivalent  to a cutoff of  17.56, 17.56, 17.58 a.u.

 SYSTEM =  Birch-Murnaghan                         
 POSCAR =  Cu                                      

 Startparameter for this run:
   NWRITE =      0    write-flag & timer
   PREC   = normal    normal or accurate (medium, high low for compatibility)
   ISTART =      0    job   : 0-new  1-cont  2-samecut
   ICHARG =      2    charge: 1-file 2-atom 10-const
   ISPIN  =      1    spin polarized calculation?
   LNONCOLLINEAR =      F non collinear calculations
   LSORBIT =      F    spin-orbit coupling
   INIWAV =      1    electr: 0-lowe 1-rand  2-diag
   LASPH  =      F    aspherical Exc in radial PAW
   METAGGA=      F    non-selfconsistent MetaGGA calc.

 Electronic Relaxation 1
   ENCUT  =  450.0 eV  33.07 Ry    5.75 a.u.  26.20 26.20 36.64*2*pi/ulx,y,z
   ENINI  =  450.0     initial cutoff
   ENAUG  =  587.0 eV  augmentation charge cutoff
   NELM   =     60;   NELMIN=  5; NELMDL= -7     # of ELM steps 
   EDIFF  = 0.1E-05   stopping-criterion for ELM
   LREAL  =      T    real-space projection
   NLSPLINE    = F    spline interpolate recip. space projectors
   LCOMPAT=      F    compatible to vasp.4.4
   GGA_COMPAT  = T    GGA compatible to vasp.4.4-vasp.4.6
   LMAXPAW     = -100 max onsite density
   LMAXMIX     =    2 max onsite mixed and CHGCAR
   VOSKOWN=      0    Vosko Wilk Nusair interpolation
   ROPT   =   -0.00050
 Ionic relaxation
   EDIFFG = -.5E-02   stopping-criterion for IOM
   NSW    =    100    number of steps for IOM
   NBLOCK =      1;   KBLOCK =    100    inner block; outer block 
   IBRION =      1    ionic relax: 0-MD 1-quasi-New 2-CG
   NFREE  =      0    steps in history (QN), initial steepest desc. (CG)
   ISIF   =      2    stress and relaxation
   IWAVPR =     11    prediction:  0-non 1-charg 2-wave 3-comb
   ISYM   =      2    0-nonsym 1-usesym 2-fastsym
   LCORR  =      T    Harris-Foulkes like correction to forces

   POTIM  = 0.2500    time-step for ionic-motion
   TEIN   =    0.0    initial temperature
   TEBEG  =    0.0;   TEEND  =   0.0 temperature during run
   SMASS  =  -3.00    Nose mass-parameter (am)
   estimated Nose-frequenzy (Omega)   =  0.10E-29 period in steps =****** mass=  -0.524E-26a.u.
   SCALEE = 1.0000    scale energy and forces
   NPACO  =    256;   APACO  = 16.0  distance and # of slots for P.C.
   PSTRESS=    0.0 pullay stress

  Mass of Ions in am
   POMASS =  63.55
  Ionic Valenz
   ZVAL   =  11.00
  Atomic Wigner-Seitz radii
   RWIGS  =  -1.00
  virtual crystal weights 
   VCA    =   1.00
   NELECT =    1584.0000    total number of electrons
   NUPDOWN=      -1.0000    fix difference up-down

 DOS related values:
   EMIN   =  10.00;   EMAX   =-10.00  energy-range for DOS
   EFERMI =   0.00
   ISMEAR =     0;   SIGMA  =   0.03  broadening in eV -4-tet -1-fermi 0-gaus

 Electronic relaxation 2 (details)
   IALGO  =     68    algorithm
   LDIAG  =      T    sub-space diagonalisation (order eigenvalues)
   LSUBROT=      F    optimize rotation matrix (better conditioning)
   TURBO    =      0    0=normal 1=particle mesh
   IRESTART =      0    0=no restart 2=restart with 2 vectors
   NREBOOT  =      0    no. of reboots
   NMIN     =      0    reboot dimension
   EREF     =   0.00    reference energy to select bands
   IMIX   =      4    mixing-type and parameters
     AMIX     =   0.40;   BMIX     =  1.00
     AMIX_MAG =   1.60;   BMIX_MAG =  1.00
     AMIN     =   0.10
     WC   =   100.;   INIMIX=   1;  MIXPRE=   1;  MAXMIX= -45

 Intra band minimization:
   WEIMIN = 0.0010     energy-eigenvalue tresh-hold
   EBREAK =  0.26E-09  absolut break condition
   DEPER  =   0.30     relativ break condition  

   TIME   =   0.40     timestep for ELM

  volume/ion in A,a.u.               =      29.23       197.28
  Fermi-wavevector in a.u.,A,eV,Ry     =   1.181895  2.233457 19.005634  1.396875
  Thomas-Fermi vector in A             =   2.318159
 
 Write flags
   LWAVE        =      F    write WAVECAR
   LDOWNSAMPLE  =      F    k-point downsampling of WAVECAR
   LCHARG       =      F    write CHGCAR
   LVTOT        =      F    write LOCPOT, total local potential
   LVHAR        =      F    write LOCPOT, Hartree potential only
   LELF         =      F    write electronic localiz. function (ELF)
   LORBIT       =      0    0 simple, 1 ext, 2 COOP (PROOUT), +10 PAW based schemes


 Dipole corrections
   LMONO  =      F    monopole corrections only (constant potential shift)
   LDIPOL =      T    correct potential (dipole corrections)
   IDIPOL =      3    1-x, 2-y, 3-z, 4-all directions 
   EPSILON=  1.0000000 bulk dielectric constant

 Exchange correlation treatment:
   GGA     =    PE    GGA type
   LEXCH   =     8    internal setting for exchange type
   VOSKOWN=      0    Vosko Wilk Nusair interpolation
   LHFCALC =     F    Hartree Fock is set to
   LHFONE  =     F    Hartree Fock one center treatment
   AEXX    =    0.0000 exact exchange contribution

 Linear response parameters
   LEPSILON=     F    determine dielectric tensor
   LRPA    =     F    only Hartree local field effects (RPA)
   LNABLA  =     F    use nabla operator in PAW spheres
   LVEL    =     F    velocity operator in full k-point grid
   LINTERFAST=   F  fast interpolation
   KINTER  =     0    interpolate to denser k-point grid
   CSHIFT  =0.1000    complex shift for real part using Kramers Kronig
   OMEGAMAX=  -1.0    maximum frequency
   DEG_THRESHOLD= 0.2000000E-02 threshold for treating states as degnerate
   RTIME   =   -0.100 relaxation time in fs
  (WPLASMAI=    0.000 imaginary part of plasma frequency in eV, 0.658/RTIME)
   DFIELD  = 0.0000000 0.0000000 0.0000000 field for delta impulse in time
 
 Orbital magnetization related:
   ORBITALMAG=     F  switch on orbital magnetization
   LCHIMAG   =     F  perturbation theory with respect to B field
   DQ        =  0.001000  dq finite difference perturbation B field
   LLRAUG    =     F  two centre corrections for induced B field



--------------------------------------------------------------------------------------------------------


 quasi-Newton-method for relaxation of ions
   using selective dynamics as specified on POSCAR
   WARNING: If single coordinates had been selected the selection of coordinates
            is made according to the corresponding   d i r e c t   coordinates!
            Don't support selection of single cartesian coordinates -- sorry ...
  !
 charge density and potential will be updated during run
 non-spin polarized calculation
 RMM-DIIS sequential band-by-band and
  variant of blocked Davidson during initial phase
 perform sub-space diagonalisation
    before iterative eigenvector-optimisation
 modified Broyden-mixing scheme, WC =      100.0
 initial mixing is a Kerker type mixing with AMIX =  0.4000 and BMIX =      1.0000
 Hartree-type preconditioning will be used
 using additional bands          168
 real space projection scheme for non local part
 use partial core corrections
 calculate Harris-corrections to forces 
   (improved forces if not selfconsistent)
 use gradient corrections 
 use of overlap-Matrix (Vanderbilt PP)
 Gauss-broadening in eV      SIGMA  =   0.03


--------------------------------------------------------------------------------------------------------


  energy-cutoff  :      450.00
  volume of cell :     4209.63
      direct lattice vectors                 reciprocal lattice vectors
    15.147900581  0.000000000  0.000000000     0.066015749  0.038114210  0.000000000
    -7.573950291 13.118466718  0.000000000     0.000000000  0.076228421  0.000000000
     0.000000000  0.000000000 21.184000015     0.000000000  0.000000000  0.047205438

  length of vectors
    15.147900581 15.147900581 21.184000015     0.076228421  0.076228421  0.047205438


 
 k-points in units of 2pi/SCALE and weight: K-POINTS                                
   0.00000000  0.00000000  0.00000000       0.111
   0.02200525  0.01270474  0.00000000       0.667
   0.02200525  0.03811421  0.00000000       0.222
 
 k-points in reciprocal lattice and weights: K-POINTS                                
   0.00000000  0.00000000  0.00000000       0.111
   0.33333333 -0.00000000  0.00000000       0.667
   0.33333333  0.33333333  0.00000000       0.222
 
 position of ions in fractional coordinates (direct lattice) 
   0.00000000  0.00000000  0.00000000
   0.00000000  0.16666667  0.00000000
   0.16666667  0.16666667  0.00000000
   0.16666667  0.00000000  0.00000000
   0.00000000  0.33333333  0.00000000
   0.00000000  0.50000000  0.00000000
   0.16666667  0.50000000  0.00000000
   0.16666667  0.33333333  0.00000000
   0.00000000  0.66666667  0.00000000
   0.00000000  0.83333333  0.00000000
   0.16666667  0.83333333  0.00000000
   0.16666667  0.66666667  0.00000000
   0.33333333  0.00000000  0.00000000
   0.33333333  0.16666667  0.00000000
   0.50000000  0.16666667  0.00000000
   0.50000000  0.00000000  0.00000000
   0.33333333  0.33333333  0.00000000
   0.33333333  0.50000000  0.00000000
   0.50000000  0.50000000  0.00000000
   0.50000000  0.33333333  0.00000000
   0.33333333  0.66666667  0.00000000
   0.33333333  0.83333333  0.00000000
   0.50000000  0.83333333  0.00000000
   0.50000000  0.66666667  0.00000000
   0.66666667  0.00000000  0.00000000
   0.66666667  0.16666667  0.00000000
   0.83333333  0.16666667  0.00000000
   0.83333333  0.00000000  0.00000000
   0.66666667  0.33333333  0.00000000
   0.66666667  0.50000000  0.00000000
   0.83333333  0.50000000  0.00000000
   0.83333333  0.33333333  0.00000000
   0.66666667  0.66666667  0.00000000
   0.66666667  0.83333333  0.00000000
   0.83333333  0.83333333  0.00000000
   0.83333333  0.66666667  0.00000000
   0.22222334  0.11111000  0.09731000
   0.22222334  0.27777666  0.09731000
   0.05555666  0.27777666  0.09731000
   0.05555666  0.11111000  0.09731000
   0.22222334  0.44444334  0.09731000
   0.22222334  0.61110999  0.09731000
   0.05555666  0.61110999  0.09731000
   0.05555666  0.44444334  0.09731000
   0.22222334  0.77777667  0.09731000
   0.22222334  0.94444333  0.09731000
   0.05555666  0.94444333  0.09731000
   0.05555666  0.77777667  0.09731000
   0.55555667  0.11111000  0.09731000
   0.55555667  0.27777666  0.09731000
   0.38889000  0.27777666  0.09731000
   0.38889000  0.11111000  0.09731000
   0.55555667  0.44444334  0.09731000
   0.55555667  0.61110999  0.09731000
   0.38889000  0.61110999  0.09731000
   0.38889000  0.44444334  0.09731000
   0.55555667  0.77777667  0.09731000
   0.55555667  0.94444333  0.09731000
   0.38889000  0.94444333  0.09731000
   0.38889000  0.77777667  0.09731000
   0.88889001  0.11111000  0.09731000
   0.88889001  0.27777666  0.09731000
   0.72222333  0.27777666  0.09731000
   0.72222333  0.11111000  0.09731000
   0.88889001  0.44444334  0.09731000
   0.88889001  0.61110999  0.09731000
   0.72222333  0.61110999  0.09731000
   0.72222333  0.44444334  0.09731000
   0.88889001  0.77777667  0.09731000
   0.88889001  0.94444333  0.09731000
   0.72222333  0.94444333  0.09731000
   0.72222333  0.77777667  0.09731000
   0.11111000  0.22222334  0.19461000
   0.11111000  0.05555666  0.19461000
   0.27777666  0.05555666  0.19461000
   0.27777666  0.22222334  0.19461000
   0.11111000  0.55555667  0.19461000
   0.11111000  0.38889000  0.19461000
   0.27777666  0.38889000  0.19461000
   0.27777666  0.55555667  0.19461000
   0.11111000  0.88889001  0.19461000
   0.11111000  0.72222333  0.19461000
   0.27777666  0.72222333  0.19461000
   0.27777666  0.88889001  0.19461000
   0.44444334  0.22222334  0.19461000
   0.44444333  0.05555666  0.19461000
   0.61110999  0.05555666  0.19461000
   0.61110999  0.22222334  0.19461000
   0.44444334  0.55555667  0.19461000
   0.44444333  0.38889000  0.19461000
   0.61110999  0.38889000  0.19461000
   0.61110999  0.55555667  0.19461000
   0.44444334  0.88889001  0.19461000
   0.44444333  0.72222333  0.19461000
   0.61110999  0.72222333  0.19461000
   0.61110999  0.88889001  0.19461000
   0.77777667  0.22222334  0.19461000
   0.77777667  0.05555666  0.19461000
   0.94444333  0.05555666  0.19461000
   0.94444333  0.22222334  0.19461000
   0.77777667  0.55555667  0.19461000
   0.77777667  0.38889000  0.19461000
   0.94444333  0.38889000  0.19461000
   0.94444333  0.55555667  0.19461000
   0.77777667  0.88889001  0.19461000
   0.77777667  0.72222333  0.19461000
   0.94444333  0.72222333  0.19461000
   0.94444333  0.88889001  0.19461000
   0.00000000  0.00000000  0.29192001
   0.00000000  0.16666667  0.29192001
   0.16666667  0.16666667  0.29192001
   0.16666667  0.00000000  0.29192001
   0.00000000  0.33333333  0.29192001
   0.00000000  0.50000000  0.29192001
   0.16666667  0.50000000  0.29192001
   0.16666667  0.33333333  0.29192001
   0.00000000  0.66666667  0.29192001
   0.00000000  0.83333333  0.29192001
   0.16666667  0.83333333  0.29192001
   0.16666667  0.66666667  0.29192001
   0.33333333  0.00000000  0.29192001
   0.33333333  0.16666667  0.29192001
   0.50000000  0.16666667  0.29192001
   0.50000000  0.00000000  0.29192001
   0.33333333  0.33333333  0.29192001
   0.33333333  0.50000000  0.29192001
   0.50000000  0.50000000  0.29192001
   0.50000000  0.33333333  0.29192001
   0.33333333  0.66666667  0.29192001
   0.33333333  0.83333333  0.29192001
   0.50000000  0.83333333  0.29192001
   0.50000000  0.66666667  0.29192001
   0.66666667  0.00000000  0.29192001
   0.66666667  0.16666667  0.29192001
   0.83333333  0.16666667  0.29192001
   0.83333333  0.00000000  0.29192001
   0.66666667  0.33333333  0.29192001
   0.66666667  0.50000000  0.29192001
   0.83333333  0.50000000  0.29192001
   0.83333333  0.33333333  0.29192001
   0.66666667  0.66666667  0.29192001
   0.66666667  0.83333333  0.29192001
   0.83333333  0.83333333  0.29192001
   0.83333333  0.66666667  0.29192001
 
 position of ions in cartesian coordinates  (Angst):
   0.00000000  0.00000000  0.00000000
  -1.26232505  2.18641112  0.00000000
   1.26232505  2.18641112  0.00000000
   2.52465010  0.00000000  0.00000000
  -2.52465010  4.37282224  0.00000000
  -3.78697515  6.55923336  0.00000000
  -1.26232505  6.55923336  0.00000000
  -0.00000000  4.37282224  0.00000000
  -5.04930019  8.74564448  0.00000000
  -6.31162524 10.93205560  0.00000000
  -3.78697515 10.93205560  0.00000000
  -2.52465010  8.74564448  0.00000000
   5.04930019  0.00000000  0.00000000
   3.78697515  2.18641112  0.00000000
   6.31162524  2.18641112  0.00000000
   7.57395029  0.00000000  0.00000000
   2.52465010  4.37282224  0.00000000
   1.26232505  6.55923336  0.00000000
   3.78697515  6.55923336  0.00000000
   5.04930019  4.37282224  0.00000000
   0.00000000  8.74564448  0.00000000
  -1.26232505 10.93205560  0.00000000
   1.26232505 10.93205560  0.00000000
   2.52465010  8.74564448  0.00000000
  10.09860039  0.00000000  0.00000000
   8.83627534  2.18641112  0.00000000
  11.36092544  2.18641112  0.00000000
  12.62325048  0.00000000  0.00000000
   7.57395029  4.37282224  0.00000000
   6.31162524  6.55923336  0.00000000
   8.83627534  6.55923336  0.00000000
  10.09860039  4.37282224  0.00000000
   5.04930019  8.74564448  0.00000000
   3.78697515 10.93205560  0.00000000
   6.31162524 10.93205560  0.00000000
   7.57395029  8.74564448  0.00000000
   2.52467545  1.45759286  2.06141502
   1.26235048  3.64400385  2.06141502
  -1.26229977  3.64400385  2.06141502
   0.00002521  1.45759286  2.06141502
   0.00002536  5.83041510  2.06141502
  -1.26229962  8.01682609  2.06141502
  -3.78694986  8.01682609  2.06141502
  -2.52462489  5.83041510  2.06141502
  -2.52462474 10.20323734  2.06141502
  -3.78694972 12.38964833  2.06141502
  -6.31159996 12.38964833  2.06141502
  -5.04927499 10.20323734  2.06141502
   7.57397565  1.45759286  2.06141502
   6.31165067  3.64400385  2.06141502
   3.78700043  3.64400385  2.06141502
   5.04932540  1.45759286  2.06141502
   5.04932555  5.83041510  2.06141502
   3.78700057  8.01682609  2.06141502
   1.26235033  8.01682609  2.06141502
   2.52467531  5.83041510  2.06141502
   2.52467545 10.20323734  2.06141502
   1.26235048 12.38964833  2.06141502
  -1.26229977 12.38964833  2.06141502
   0.00002521 10.20323734  2.06141502
  12.62327584  1.45759286  2.06141502
  11.36095086  3.64400385  2.06141502
   8.83630062  3.64400385  2.06141502
  10.09862560  1.45759286  2.06141502
  10.09862574  5.83041510  2.06141502
   8.83630077  8.01682609  2.06141502
   6.31165052  8.01682609  2.06141502
   7.57397550  5.83041510  2.06141502
   7.57397565 10.20323734  2.06141502
   6.31165067 12.38964833  2.06141502
   3.78700043 12.38964833  2.06141502
   5.04932540 10.20323734  2.06141502
  -0.00002528  2.91522951  4.12261824
   1.26229984  0.72881826  4.12261824
   3.78694979  0.72881826  4.12261824
   2.52462467  2.91522951  4.12261824
  -2.52467538  7.28805175  4.12261824
  -1.26235026  5.10164050  4.12261824
   1.26229969  5.10164050  4.12261824
  -0.00002543  7.28805175  4.12261824
  -5.04932548 11.66087399  4.12261824
  -3.78700035  9.47446274  4.12261824
  -1.26235040  9.47446274  4.12261824
  -2.52467553 11.66087399  4.12261824
   5.04927491  2.91522951  4.12261824
   6.31160003  0.72881826  4.12261824
   8.83624998  0.72881826  4.12261824
   7.57392486  2.91522951  4.12261824
   2.52462482  7.28805175  4.12261824
   3.78694994  5.10164050  4.12261824
   6.31159989  5.10164050  4.12261824
   5.04927477  7.28805175  4.12261824
  -0.00002528 11.66087399  4.12261824
   1.26229984  9.47446274  4.12261824
   3.78694979  9.47446274  4.12261824
   2.52462467 11.66087399  4.12261824
  10.09857511  2.91522951  4.12261824
  11.36090023  0.72881826  4.12261824
  13.88555018  0.72881826  4.12261824
  12.62322506  2.91522951  4.12261824
   7.57392501  7.28805175  4.12261824
   8.83625013  5.10164050  4.12261824
  11.36090008  5.10164050  4.12261824
  10.09857496  7.28805175  4.12261824
   5.04927491 11.66087399  4.12261824
   6.31160003  9.47446274  4.12261824
   8.83624998  9.47446274  4.12261824
   7.57392486 11.66087399  4.12261824
   0.00000000  0.00000000  6.18403341
  -1.26232505  2.18641112  6.18403341
   1.26232505  2.18641112  6.18403341
   2.52465010  0.00000000  6.18403341
  -2.52465010  4.37282224  6.18403341
  -3.78697515  6.55923336  6.18403341
  -1.26232505  6.55923336  6.18403341
  -0.00000000  4.37282224  6.18403341
  -5.04930019  8.74564448  6.18403341
  -6.31162524 10.93205560  6.18403341
  -3.78697515 10.93205560  6.18403341
  -2.52465010  8.74564448  6.18403341
   5.04930019  0.00000000  6.18403341
   3.78697515  2.18641112  6.18403341
   6.31162524  2.18641112  6.18403341
   7.57395029  0.00000000  6.18403341
   2.52465010  4.37282224  6.18403341
   1.26232505  6.55923336  6.18403341
   3.78697515  6.55923336  6.18403341
   5.04930019  4.37282224  6.18403341
   0.00000000  8.74564448  6.18403341
  -1.26232505 10.93205560  6.18403341
   1.26232505 10.93205560  6.18403341
   2.52465010  8.74564448  6.18403341
  10.09860039  0.00000000  6.18403341
   8.83627534  2.18641112  6.18403341
  11.36092544  2.18641112  6.18403341
  12.62325048  0.00000000  6.18403341
   7.57395029  4.37282224  6.18403341
   6.31162524  6.55923336  6.18403341
   8.83627534  6.55923336  6.18403341
  10.09860039  4.37282224  6.18403341
   5.04930019  8.74564448  6.18403341
   3.78697515 10.93205560  6.18403341
   6.31162524 10.93205560  6.18403341
   7.57395029  8.74564448  6.18403341
 


--------------------------------------------------------------------------------------------------------


 k-point  1 :   0.0000 0.0000 0.0000  plane waves:   91267
 k-point  2 :   0.3333-0.0000 0.0000  plane waves:   91252
 k-point  3 :   0.3333 0.3333 0.0000  plane waves:   91296

 maximum and minimum number of plane-waves per node :     91296    91252

 maximum number of plane-waves:     91296
 maximum index in each direction: 
   IXMAX=   26   IYMAX=   26   IZMAX=   36
   IXMIN=  -26   IYMIN=  -26   IZMIN=  -36


 serial   3D FFT for wavefunctions
 parallel 3D FFT for charge:
    minimum data exchange during FFTs selected (reduces bandwidth)


 total amount of memory used by VASP MPI-rank0   216230. kBytes
=======================================================================

   base      :      30000. kBytes
   nonlr-proj:      50595. kBytes
   fftplans  :       7568. kBytes
   grid      :      35696. kBytes
   one-center:       2239. kBytes
   wavefun   :      90132. kBytes
 
     INWAV:  cpu time    0.0000: real time    0.0003
 Broyden mixing: mesh for mixing (old mesh)
   NGX = 53   NGY = 53   NGZ = 73
  (NGX  =160   NGY  =160   NGZ  =224)
  gives a total of 205057 points

 initial charge density was supplied:
 charge density of overlapping atoms calculated
 number of electron    1584.0000000 magnetization 
 keeping initial charge density in first step


--------------------------------------------------------------------------------------------------------


 Maximum index for non-local projection operator         2011
 Maximum index for augmentation-charges          318 (set IRDMAX)


--------------------------------------------------------------------------------------------------------


 First call to EWALD:  gamma=   0.110
 Maximum number of real-space cells 3x 3x 2
 Maximum number of reciprocal cells 3x 3x 3

    FEWALD:  cpu time    0.0049: real time    0.0049


--------------------------------------- Iteration      1(   1)  ---------------------------------------


    POTLOK:  cpu time    0.1175: real time    0.1363
    SETDIJ:  cpu time    0.0141: real time    0.0197
     EDDAV:  cpu time   28.0918: real time   28.1561
       DOS:  cpu time    0.0044: real time    0.0073
    --------------------------------------------
      LOOP:  cpu time   28.2278: real time   28.3193

 eigenvalue-minimisations  :  5760
 total energy-change (2. order) : 0.1486524E+05  (-0.6236185E+05)
 number of electron    1584.0000000 magnetization 
 augmentation part     1584.0000000 magnetization 

 DIPCOR: dipole corrections for dipol
 direction  3 min pos   140,
 dipolmoment           0.000000      0.000000     -0.000487 electrons x Angstroem
 Tr[quadrupol]    -61655.522181

 energy correction for charged system         0.000000 eV
 dipol+quadrupol energy correction           -0.000000 eV
 added-field ion interaction          0.017945 eV  (added to PSCEN)


 Free energy of the ion-electron system (eV)
  ---------------------------------------------------
  alpha Z        PSCENC =      3602.43272272
  Ewald energy   TEWEN  =    621382.87523613
  -Hartree energ DENC   =   -814634.65232075
  -exchange      EXHF   =         0.00000000
  -V(xc)+E(xc)   XCENC  =      6571.32300566
  PAW double counting   =    176861.75902247  -192102.97926617
  entropy T*S    EENTRO =        -0.01665517
  eigenvalues    EBANDS =     12884.65466168
  atomic energy  EATOM  =    200299.84120742
  Solvation  Ediel_sol  =         0.00000000
  ---------------------------------------------------
  free energy    TOTEN  =     14865.23761399 eV

  energy without entropy =    14865.25426916  energy(sigma->0) =    14865.24594158


--------------------------------------------------------------------------------------------------------




--------------------------------------- Iteration      1(   2)  ---------------------------------------


     EDDAV:  cpu time   28.0140: real time   28.0430
       DOS:  cpu time    0.0033: real time    0.0033
    --------------------------------------------
      LOOP:  cpu time   28.0173: real time   28.0463

 eigenvalue-minimisations  :  5760
 total energy-change (2. order) :-0.1330508E+05  (-0.1286794E+05)
 number of electron    1584.0000000 magnetization 
 augmentation part     1584.0000000 magnetization 

 DIPCOR: dipole corrections for dipol
 direction  3 min pos   140,
 dipolmoment           0.000000      0.000000     -0.000487 electrons x Angstroem
 Tr[quadrupol]    -61655.522181

 energy correction for charged system         0.000000 eV
 dipol+quadrupol energy correction           -0.000000 eV
 added-field ion interaction          0.017945 eV  (added to PSCEN)


 Free energy of the ion-electron system (eV)
  ---------------------------------------------------
  alpha Z        PSCENC =      3602.43272272
  Ewald energy   TEWEN  =    621382.87523613
  -Hartree energ DENC   =   -814634.65232075
  -exchange      EXHF   =         0.00000000
  -V(xc)+E(xc)   XCENC  =      6571.32300566
  PAW double counting   =    176861.75902247  -192102.97926617
  entropy T*S    EENTRO =        -0.03833354
  eigenvalues    EBANDS =      -420.40056637
  atomic energy  EATOM  =    200299.84120742
  Solvation  Ediel_sol  =         0.00000000
  ---------------------------------------------------
  free energy    TOTEN  =      1560.16070758 eV

  energy without entropy =     1560.19904111  energy(sigma->0) =     1560.17987435


--------------------------------------------------------------------------------------------------------




--------------------------------------- Iteration      1(   3)  ---------------------------------------


     EDDAV:  cpu time   28.1918: real time   28.2240
       DOS:  cpu time    0.0022: real time    0.0022
    --------------------------------------------
      LOOP:  cpu time   28.1940: real time   28.2262

 eigenvalue-minimisations  :  5760
 total energy-change (2. order) :-0.2059725E+04  (-0.1901619E+04)
 number of electron    1584.0000000 magnetization 
 augmentation part     1584.0000000 magnetization 

 DIPCOR: dipole corrections for dipol
 direction  3 min pos   140,
 dipolmoment           0.000000      0.000000     -0.000487 electrons x Angstroem
 Tr[quadrupol]    -61655.522181

 energy correction for charged system         0.000000 eV
 dipol+quadrupol energy correction           -0.000000 eV
 added-field ion interaction          0.017945 eV  (added to PSCEN)


 Free energy of the ion-electron system (eV)
  ---------------------------------------------------
  alpha Z        PSCENC =      3602.43272272
  Ewald energy   TEWEN  =    621382.87523613
  -Hartree energ DENC   =   -814634.65232075
  -exchange      EXHF   =         0.00000000
  -V(xc)+E(xc)   XCENC  =      6571.32300566
  PAW double counting   =    176861.75902247  -192102.97926617
  entropy T*S    EENTRO =        -0.04161662
  eigenvalues    EBANDS =     -2480.12248190
  atomic energy  EATOM  =    200299.84120742
  Solvation  Ediel_sol  =         0.00000000
  ---------------------------------------------------
  free energy    TOTEN  =      -499.56449104 eV

  energy without entropy =     -499.52287442  energy(sigma->0) =     -499.54368273


--------------------------------------------------------------------------------------------------------




--------------------------------------- Iteration      1(   4)  ---------------------------------------


     EDDAV:  cpu time   30.4811: real time   30.5152
       DOS:  cpu time    0.0022: real time    0.0022
    --------------------------------------------
      LOOP:  cpu time   30.4833: real time   30.5174

 eigenvalue-minimisations  :  6384
 total energy-change (2. order) :-0.1204281E+03  (-0.1169952E+03)
 number of electron    1584.0000000 magnetization 
 augmentation part     1584.0000000 magnetization 

 DIPCOR: dipole corrections for dipol
 direction  3 min pos   140,
 dipolmoment           0.000000      0.000000     -0.000487 electrons x Angstroem
 Tr[quadrupol]    -61655.522181

 energy correction for charged system         0.000000 eV
 dipol+quadrupol energy correction           -0.000000 eV
 added-field ion interaction          0.017945 eV  (added to PSCEN)


 Free energy of the ion-electron system (eV)
  ---------------------------------------------------
  alpha Z        PSCENC =      3602.43272272
  Ewald energy   TEWEN  =    621382.87523613
  -Hartree energ DENC   =   -814634.65232075
  -exchange      EXHF   =         0.00000000
  -V(xc)+E(xc)   XCENC  =      6571.32300566
  PAW double counting   =    176861.75902247  -192102.97926617
  entropy T*S    EENTRO =        -0.04949281
  eigenvalues    EBANDS =     -2600.54265664
  atomic energy  EATOM  =    200299.84120742
  Solvation  Ediel_sol  =         0.00000000
  ---------------------------------------------------
  free energy    TOTEN  =      -619.99254196 eV

  energy without entropy =     -619.94304916  energy(sigma->0) =     -619.96779556


--------------------------------------------------------------------------------------------------------




--------------------------------------- Iteration      1(   5)  ---------------------------------------


     EDDAV:  cpu time   30.4991: real time   30.5341
       DOS:  cpu time    0.0023: real time    0.0023
    --------------------------------------------
      LOOP:  cpu time   30.5014: real time   30.5364

 eigenvalue-minimisations  :  6384
 total energy-change (2. order) :-0.3084870E+01  (-0.3069317E+01)
 number of electron    1584.0000000 magnetization 
 augmentation part     1584.0000000 magnetization 

 DIPCOR: dipole corrections for dipol
 direction  3 min pos   140,
 dipolmoment           0.000000      0.000000     -0.000487 electrons x Angstroem
 Tr[quadrupol]    -61655.522181

 energy correction for charged system         0.000000 eV
 dipol+quadrupol energy correction           -0.000000 eV
 added-field ion interaction          0.017945 eV  (added to PSCEN)


 Free energy of the ion-electron system (eV)
  ---------------------------------------------------
  alpha Z        PSCENC =      3602.43272272
  Ewald energy   TEWEN  =    621382.87523613
  -Hartree energ DENC   =   -814634.65232075
  -exchange      EXHF   =         0.00000000
  -V(xc)+E(xc)   XCENC  =      6571.32300566
  PAW double counting   =    176861.75902247  -192102.97926617
  entropy T*S    EENTRO =        -0.05035483
  eigenvalues    EBANDS =     -2603.62666477
  atomic energy  EATOM  =    200299.84120742
  Solvation  Ediel_sol  =         0.00000000
  ---------------------------------------------------
  free energy    TOTEN  =      -623.07741212 eV

  energy without entropy =     -623.02705729  energy(sigma->0) =     -623.05223470


--------------------------------------------------------------------------------------------------------




--------------------------------------- Iteration      1(   6)  ---------------------------------------


     EDDAV:  cpu time   37.6267: real time   37.6552
       DOS:  cpu time    0.0018: real time    0.0018
    --------------------------------------------
      LOOP:  cpu time   37.6285: real time   37.6570

 eigenvalue-minimisations  :  7200
 total energy-change (2. order) :-0.1458202E+00  (-0.1457334E+00)
 number of electron    1584.0000000 magnetization 
 augmentation part     1584.0000000 magnetization 

 DIPCOR: dipole corrections for dipol
 direction  3 min pos   140,
 dipolmoment           0.000000      0.000000     -0.000487 electrons x Angstroem
 Tr[quadrupol]    -61655.522181

 energy correction for charged system         0.000000 eV
 dipol+quadrupol energy correction           -0.000000 eV
 added-field ion interaction          0.017945 eV  (added to PSCEN)


 Free energy of the ion-electron system (eV)
  ---------------------------------------------------
  alpha Z        PSCENC =      3602.43272272
  Ewald energy   TEWEN  =    621382.87523613
  -Hartree energ DENC   =   -814634.65232075
  -exchange      EXHF   =         0.00000000
  -V(xc)+E(xc)   XCENC  =      6571.32300566
  PAW double counting   =    176861.75902247  -192102.97926617
  entropy T*S    EENTRO =        -0.05038517
  eigenvalues    EBANDS =     -2603.77245462
  atomic energy  EATOM  =    200299.84120742
  Solvation  Ediel_sol  =         0.00000000
  ---------------------------------------------------
  free energy    TOTEN  =      -623.22323231 eV

  energy without entropy =     -623.17284714  energy(sigma->0) =     -623.19803972


--------------------------------------------------------------------------------------------------------




--------------------------------------- Iteration      1(   7)  ---------------------------------------


     EDDAV:  cpu time   36.0412: real time   36.0555
       DOS:  cpu time    0.0025: real time    0.0025
    CHARGE:  cpu time    1.7112: real time    1.7154
    MIXING:  cpu time    0.0033: real time    0.0040
    --------------------------------------------
      LOOP:  cpu time   37.7582: real time   37.7774

 eigenvalue-minimisations  :  7824
 total energy-change (2. order) :-0.6784844E-02  (-0.6783768E-02)
 number of electron    1584.0000114 magnetization 
 augmentation part      936.0836851 magnetization 

 DIPCOR: dipole corrections for dipol
 direction  3 min pos   140,
 dipolmoment           0.000000      0.000000     -0.000487 electrons x Angstroem
 Tr[quadrupol]    -61655.522181

 energy correction for charged system         0.000000 eV
 dipol+quadrupol energy correction           -0.000000 eV
 added-field ion interaction          0.017945 eV  (added to PSCEN)


 Broyden mixing:
  rms(total) = 0.89902E+01    rms(broyden)= 0.89901E+01
  rms(prec ) = 0.95621E+01
  weight for this iteration     100.00

 Free energy of the ion-electron system (eV)
  ---------------------------------------------------
  alpha Z        PSCENC =      3602.43272272
  Ewald energy   TEWEN  =    621382.87523613
  -Hartree energ DENC   =   -814634.65232075
  -exchange      EXHF   =         0.00000000
  -V(xc)+E(xc)   XCENC  =      6571.32300566
  PAW double counting   =    176861.75902247  -192102.97926617
  entropy T*S    EENTRO =        -0.05038354
  eigenvalues    EBANDS =     -2603.77924110
  atomic energy  EATOM  =    200299.84120742
  Solvation  Ediel_sol  =         0.00000000
  ---------------------------------------------------
  free energy    TOTEN  =      -623.23001715 eV

  energy without entropy =     -623.17963362  energy(sigma->0) =     -623.20482539


--------------------------------------------------------------------------------------------------------




--------------------------------------- Iteration      1(   8)  ---------------------------------------


    POTLOK:  cpu time    0.1057: real time    0.1063
    SETDIJ:  cpu time    0.0106: real time    0.0106
    EDDIAG:  cpu time    5.4505: real time    5.4549
  RMM-DIIS:  cpu time   13.5554: real time   13.5650
    ORTHCH:  cpu time    1.7788: real time    1.7793
       DOS:  cpu time    0.0008: real time    0.0008
    CHARGE:  cpu time    1.7123: real time    1.7131
    MIXING:  cpu time    0.0035: real time    0.0064
    --------------------------------------------
      LOOP:  cpu time   22.6178: real time   22.6364

 eigenvalue-minimisations  :  5781
 total energy-change (2. order) : 0.6172644E+02  (-0.1460207E+03)
 number of electron    1584.0000129 magnetization 
 augmentation part     1056.1679988 magnetization 

 DIPCOR: dipole corrections for dipol
 direction  3 min pos   142,
 dipolmoment           0.000000      0.000000     -0.016729 electrons x Angstroem
 Tr[quadrupol]    -61653.885890

 energy correction for charged system         0.000000 eV
 dipol+quadrupol energy correction           -0.000006 eV
 added-field ion interaction          0.399942 eV  (added to PSCEN)


 Broyden mixing:
  rms(total) = 0.49273E+01    rms(broyden)= 0.49270E+01
  rms(prec ) = 0.52423E+01
  weight for this iteration     100.00

 eigenvalues of (default mixing * dielectric matrix)
  average eigenvalue GAMMA=   0.6482
  0.6482

 Free energy of the ion-electron system (eV)
  ---------------------------------------------------
  alpha Z        PSCENC =      3602.81471358
  Ewald energy   TEWEN  =    621382.87523613
  -Hartree energ DENC   =   -810606.17889899
  -exchange      EXHF   =         0.00000000
  -V(xc)+E(xc)   XCENC  =      6376.41759737
  PAW double counting   =    179578.39730099  -194047.30629882
  entropy T*S    EENTRO =        -0.04014446
  eigenvalues    EBANDS =     -7148.32429112
  atomic energy  EATOM  =    200299.84120742
  Solvation  Ediel_sol  =         0.00000000
  ---------------------------------------------------
  free energy    TOTEN  =      -561.50357790 eV

  energy without entropy =     -561.46343344  energy(sigma->0) =     -561.48350567


--------------------------------------------------------------------------------------------------------




--------------------------------------- Iteration      1(   9)  ---------------------------------------


    POTLOK:  cpu time    0.1027: real time    0.1040
    SETDIJ:  cpu time    0.0106: real time    0.0106
    EDDIAG:  cpu time    5.5564: real time    5.5589
  RMM-DIIS:  cpu time   13.6409: real time   13.6479
    ORTHCH:  cpu time    1.7820: real time    1.7824
       DOS:  cpu time    0.0008: real time    0.0008
    CHARGE:  cpu time    1.7160: real time    1.7167
    MIXING:  cpu time    0.0033: real time    0.0033
    --------------------------------------------
      LOOP:  cpu time   22.8127: real time   22.8247

 eigenvalue-minimisations  :  5778
 total energy-change (2. order) : 0.5675720E+02  (-0.2565463E+02)
 number of electron    1584.0000120 magnetization 
 augmentation part     1008.8068139 magnetization 

 DIPCOR: dipole corrections for dipol
 direction  3 min pos   137,
 dipolmoment           0.000000      0.000000      0.327375 electrons x Angstroem
 Tr[quadrupol]    -61664.254505

 energy correction for charged system         0.000000 eV
 dipol+quadrupol energy correction           -0.002314 eV
 added-field ion interaction        -18.417291 eV  (added to PSCEN)


 Broyden mixing:
  rms(total) = 0.61401E+00    rms(broyden)= 0.61381E+00
  rms(prec ) = 0.70068E+00
  weight for this iteration     100.00

 eigenvalues of (default mixing * dielectric matrix)
  average eigenvalue GAMMA=   1.1550
  1.6901  0.6199

 Free energy of the ion-electron system (eV)
  ---------------------------------------------------
  alpha Z        PSCENC =      3583.99517283
  Ewald energy   TEWEN  =    621382.87523613
  -Hartree energ DENC   =   -812353.11017247
  -exchange      EXHF   =         0.00000000
  -V(xc)+E(xc)   XCENC  =      6440.43536113
  PAW double counting   =    183397.21082929  -198550.86164238
  entropy T*S    EENTRO =        -0.02801256
  eigenvalues    EBANDS =     -4705.10435957
  atomic energy  EATOM  =    200299.84120742
  Solvation  Ediel_sol  =         0.00000000
  ---------------------------------------------------
  free energy    TOTEN  =      -504.74638018 eV

  energy without entropy =     -504.71836762  energy(sigma->0) =     -504.73237390


--------------------------------------------------------------------------------------------------------




--------------------------------------- Iteration      1(  10)  ---------------------------------------


    POTLOK:  cpu time    0.1025: real time    0.1031
    SETDIJ:  cpu time    0.0106: real time    0.0106
    EDDIAG:  cpu time    5.4745: real time    5.4770
  RMM-DIIS:  cpu time   13.7088: real time   13.7147
    ORTHCH:  cpu time    1.7876: real time    1.7884
       DOS:  cpu time    0.0013: real time    0.0013
    CHARGE:  cpu time    1.7089: real time    1.7097
    MIXING:  cpu time    0.0034: real time    0.0034
    --------------------------------------------
      LOOP:  cpu time   22.7976: real time   22.8081

 eigenvalue-minimisations  :  5837
 total energy-change (2. order) :-0.1766184E+01  (-0.7531555E+00)
 number of electron    1584.0000127 magnetization 
 augmentation part     1006.8099705 magnetization 

 DIPCOR: dipole corrections for dipol
 direction  3 min pos   147,
 dipolmoment           0.000000      0.000000     -1.019917 electrons x Angstroem
 Tr[quadrupol]    -61669.858268

 energy correction for charged system         0.000000 eV
 dipol+quadrupol energy correction           -0.022464 eV
 added-field ion interaction         -8.611323 eV  (added to PSCEN)


 Broyden mixing:
  rms(total) = 0.92897E+00    rms(broyden)= 0.92893E+00
  rms(prec ) = 0.15842E+01
  weight for this iteration     100.00

 eigenvalues of (default mixing * dielectric matrix)
  average eigenvalue GAMMA=   0.8163
  1.7008  0.6168  0.1312

 Free energy of the ion-electron system (eV)
  ---------------------------------------------------
  alpha Z        PSCENC =      3593.78099088
  Ewald energy   TEWEN  =    621382.87523613
  -Hartree energ DENC   =   -812421.64825886
  -exchange      EXHF   =         0.00000000
  -V(xc)+E(xc)   XCENC  =      6430.90188937
  PAW double counting   =    187333.81354854  -202759.75374701
  entropy T*S    EENTRO =        -0.01463981
  eigenvalues    EBANDS =     -4366.30879062
  atomic energy  EATOM  =    200299.84120742
  Solvation  Ediel_sol  =         0.00000000
  ---------------------------------------------------
  free energy    TOTEN  =      -506.51256397 eV

  energy without entropy =     -506.49792416  energy(sigma->0) =     -506.50524406


--------------------------------------------------------------------------------------------------------




--------------------------------------- Iteration      1(  11)  ---------------------------------------


    POTLOK:  cpu time    0.1026: real time    0.1028
    SETDIJ:  cpu time    0.0107: real time    0.0107
    EDDIAG:  cpu time    5.4616: real time    5.4636
  RMM-DIIS:  cpu time   13.7765: real time   13.7829
    ORTHCH:  cpu time    1.7972: real time    1.7980
       DOS:  cpu time    0.0009: real time    0.0009
    CHARGE:  cpu time    1.7343: real time    1.7349
    MIXING:  cpu time    0.0036: real time    0.0036
    --------------------------------------------
      LOOP:  cpu time   22.8874: real time   22.8974

 eigenvalue-minimisations  :  5874
 total energy-change (2. order) : 0.2775873E+01  (-0.1067586E+00)
 number of electron    1584.0000121 magnetization 
 augmentation part     1007.4719384 magnetization 

 DIPCOR: dipole corrections for dipol
 direction  3 min pos   152,
 dipolmoment           0.000000      0.000000     -0.428402 electrons x Angstroem
 Tr[quadrupol]    -61670.291850

 energy correction for charged system         0.000000 eV
 dipol+quadrupol energy correction           -0.003963 eV
 added-field ion interaction        -17.475972 eV  (added to PSCEN)


 Broyden mixing:
  rms(total) = 0.44975E+00    rms(broyden)= 0.44973E+00
  rms(prec ) = 0.53989E+00
  weight for this iteration     100.00

 eigenvalues of (default mixing * dielectric matrix)
  average eigenvalue GAMMA=   0.7125
  1.7039  0.6013  0.2724  0.2724

 Free energy of the ion-electron system (eV)
  ---------------------------------------------------
  alpha Z        PSCENC =      3584.93484303
  Ewald energy   TEWEN  =    621382.87523613
  -Hartree energ DENC   =   -812411.60070624
  -exchange      EXHF   =         0.00000000
  -V(xc)+E(xc)   XCENC  =      6429.34463109
  PAW double counting   =    187699.05156332  -203145.70253179
  entropy T*S    EENTRO =        -0.04690779
  eigenvalues    EBANDS =     -4342.43402585
  atomic energy  EATOM  =    200299.84120742
  Solvation  Ediel_sol  =         0.00000000
  ---------------------------------------------------
  free energy    TOTEN  =      -503.73669067 eV

  energy without entropy =     -503.68978288  energy(sigma->0) =     -503.71323678


--------------------------------------------------------------------------------------------------------




--------------------------------------- Iteration      1(  12)  ---------------------------------------


    POTLOK:  cpu time    0.1036: real time    0.1050
    SETDIJ:  cpu time    0.0107: real time    0.0107
    EDDIAG:  cpu time    5.4759: real time    5.4779
  RMM-DIIS:  cpu time   13.5752: real time   13.5815
    ORTHCH:  cpu time    1.8009: real time    1.8016
       DOS:  cpu time    0.0008: real time    0.0008
    CHARGE:  cpu time    1.8021: real time    1.8028
    MIXING:  cpu time    0.0038: real time    0.0038
    --------------------------------------------
      LOOP:  cpu time   22.7730: real time   22.7840

 eigenvalue-minimisations  :  5795
 total energy-change (2. order) : 0.3278302E+00  (-0.5447513E-01)
 number of electron    1584.0000120 magnetization 
 augmentation part     1008.7319666 magnetization 

 DIPCOR: dipole corrections for dipol
 direction  3 min pos   143,
 dipolmoment           0.000000      0.000000      0.184611 electrons x Angstroem
 Tr[quadrupol]    -61670.689663

 energy correction for charged system         0.000000 eV
 dipol+quadrupol energy correction           -0.000736 eV
 added-field ion interaction         -3.219079 eV  (added to PSCEN)


 Broyden mixing:
  rms(total) = 0.23680E+00    rms(broyden)= 0.23679E+00
  rms(prec ) = 0.27988E+00
  weight for this iteration     100.00

 eigenvalues of (default mixing * dielectric matrix)
  average eigenvalue GAMMA=   0.9120
  2.1600  1.0208  0.6418  0.5313  0.2060

 Free energy of the ion-electron system (eV)
  ---------------------------------------------------
  alpha Z        PSCENC =      3599.19496298
  Ewald energy   TEWEN  =    621382.87523613
  -Hartree energ DENC   =   -812355.21723521
  -exchange      EXHF   =         0.00000000
  -V(xc)+E(xc)   XCENC  =      6426.37550748
  PAW double counting   =    188161.82038137  -203625.28400416
  entropy T*S    EENTRO =        -0.04276956
  eigenvalues    EBANDS =     -4392.97214689
  atomic energy  EATOM  =    200299.84120742
  Solvation  Ediel_sol  =         0.00000000
  ---------------------------------------------------
  free energy    TOTEN  =      -503.40886043 eV

  energy without entropy =     -503.36609087  energy(sigma->0) =     -503.38747565


--------------------------------------------------------------------------------------------------------




--------------------------------------- Iteration      1(  13)  ---------------------------------------


    POTLOK:  cpu time    0.1042: real time    0.1048
    SETDIJ:  cpu time    0.0106: real time    0.0106
    EDDIAG:  cpu time    5.4756: real time    5.4776
  RMM-DIIS:  cpu time   13.4455: real time   13.4538
    ORTHCH:  cpu time    1.7907: real time    1.7911
       DOS:  cpu time    0.0008: real time    0.0008
    CHARGE:  cpu time    1.7114: real time    1.7125
    MIXING:  cpu time    0.0039: real time    0.0039
    --------------------------------------------
      LOOP:  cpu time   22.5426: real time   22.5551

 eigenvalue-minimisations  :  5760
 total energy-change (2. order) : 0.1108790E+00  (-0.2673490E-01)
 number of electron    1584.0000121 magnetization 
 augmentation part     1010.2402442 magnetization 

 DIPCOR: dipole corrections for dipol
 direction  3 min pos   150,
 dipolmoment           0.000000      0.000000     -0.228333 electrons x Angstroem
 Tr[quadrupol]    -61671.086004

 energy correction for charged system         0.000000 eV
 dipol+quadrupol energy correction           -0.001126 eV
 added-field ion interaction         -6.359831 eV  (added to PSCEN)


 Broyden mixing:
  rms(total) = 0.68946E-01    rms(broyden)= 0.68939E-01
  rms(prec ) = 0.16381E+00
  weight for this iteration     100.00

 eigenvalues of (default mixing * dielectric matrix)
  average eigenvalue GAMMA=   0.9598
  2.3103  1.0708  1.0708  0.6448  0.4486  0.2135

 Free energy of the ion-electron system (eV)
  ---------------------------------------------------
  alpha Z        PSCENC =      3596.05382167
  Ewald energy   TEWEN  =    621382.87523613
  -Hartree energ DENC   =   -812280.23511599
  -exchange      EXHF   =         0.00000000
  -V(xc)+E(xc)   XCENC  =      6421.72559525
  PAW double counting   =    189154.90766115  -204663.83820839
  entropy T*S    EENTRO =        -0.02713331
  eigenvalues    EBANDS =     -4414.60104541
  atomic energy  EATOM  =    200299.84120742
  Solvation  Ediel_sol  =         0.00000000
  ---------------------------------------------------
  free energy    TOTEN  =      -503.29798148 eV

  energy without entropy =     -503.27084816  energy(sigma->0) =     -503.28441482


--------------------------------------------------------------------------------------------------------




--------------------------------------- Iteration      1(  14)  ---------------------------------------


    POTLOK:  cpu time    0.1051: real time    0.1057
    SETDIJ:  cpu time    0.0106: real time    0.0106
    EDDIAG:  cpu time    5.4617: real time    5.4649
  RMM-DIIS:  cpu time   13.9573: real time   13.9665
    ORTHCH:  cpu time    1.7830: real time    1.7834
       DOS:  cpu time    0.0008: real time    0.0008
    CHARGE:  cpu time    1.7052: real time    1.7060
    MIXING:  cpu time    0.0041: real time    0.0041
    --------------------------------------------
      LOOP:  cpu time   23.0279: real time   23.0421

 eigenvalue-minimisations  :  5930
 total energy-change (2. order) : 0.5851187E-01  (-0.4198458E-02)
 number of electron    1584.0000121 magnetization 
 augmentation part     1009.9801684 magnetization 

 DIPCOR: dipole corrections for dipol
 direction  3 min pos   153,
 dipolmoment           0.000000      0.000000     -0.183783 electrons x Angstroem
 Tr[quadrupol]    -61672.415331

 energy correction for charged system         0.000000 eV
 dipol+quadrupol energy correction           -0.000729 eV
 added-field ion interaction         -8.686246 eV  (added to PSCEN)


 Broyden mixing:
[...]
 augmentation part     1010.1227413 magnetization 

 DIPCOR: dipole corrections for dipol
 direction  3 min pos   148,
 dipolmoment           0.000000      0.000000      0.010631 electrons x Angstroem
 Tr[quadrupol]    -61676.615939

 energy correction for charged system         0.000000 eV
 dipol+quadrupol energy correction           -0.000002 eV
 added-field ion interaction          0.145042 eV  (added to PSCEN)


 eigenvalues of (default mixing * dielectric matrix)
  average eigenvalue GAMMA=   0.9743
  2.6247  1.1815  0.5144  0.3704  0.1803

  free energy =  -0.503389025898E+03  energy without entropy=  -0.503331724310E+03


--------------------------------------------------------------------------------------------------------




--------------------------------------- Iteration     11(   7)  ---------------------------------------


    POTLOK:  cpu time    0.1056: real time    0.1071
    SETDIJ:  cpu time    0.0106: real time    0.0106
    EDDIAG:  cpu time    5.4665: real time    5.4711
  RMM-DIIS:  cpu time   13.3481: real time   13.3616
    ORTHCH:  cpu time    1.8017: real time    1.8030
       DOS:  cpu time    0.0008: real time    0.0008
    CHARGE:  cpu time    1.7094: real time    1.7106
    MIXING:  cpu time    0.0039: real time    0.0039
    --------------------------------------------
      LOOP:  cpu time   22.4465: real time   22.4688

 eigenvalue-minimisations  :  5687
 total energy-change (2. order) :-0.3547611E-05  (-0.1419463E-05)
 number of electron    1583.9998958 magnetization 
 augmentation part     1010.1290813 magnetization 

 DIPCOR: dipole corrections for dipol
 direction  3 min pos   148,
 dipolmoment           0.000000      0.000000      0.010398 electrons x Angstroem
 Tr[quadrupol]    -61676.615690

 energy correction for charged system         0.000000 eV
 dipol+quadrupol energy correction           -0.000002 eV
 added-field ion interaction          0.141864 eV  (added to PSCEN)


 eigenvalues of (default mixing * dielectric matrix)
  average eigenvalue GAMMA=   0.8970
  2.4899  0.9124  0.9124  0.1801  0.3533  0.5340

  free energy =  -0.503389029446E+03  energy without entropy=  -0.503331745430E+03


--------------------------------------------------------------------------------------------------------




--------------------------------------- Iteration     11(   8)  ---------------------------------------


    POTLOK:  cpu time    0.1071: real time    0.1078
    SETDIJ:  cpu time    0.0105: real time    0.0105
    EDDIAG:  cpu time    5.4539: real time    5.4581
  RMM-DIIS:  cpu time    7.5966: real time    7.6037
    ORTHCH:  cpu time    1.7973: real time    1.7985
       DOS:  cpu time    0.0008: real time    0.0008
    CHARGE:  cpu time    1.7061: real time    1.7071
    MIXING:  cpu time    0.0041: real time    0.0041
    --------------------------------------------
      LOOP:  cpu time   16.6765: real time   16.6908

 eigenvalue-minimisations  :  3123
 total energy-change (2. order) : 0.1330016E-05  (-0.9121337E-07)
 number of electron    1583.9998958 magnetization 
 augmentation part     1010.1288292 magnetization 

 DIPCOR: dipole corrections for dipol
 direction  3 min pos   148,
 dipolmoment           0.000000      0.000000      0.010299 electrons x Angstroem
 Tr[quadrupol]    -61676.615713

 energy correction for charged system         0.000000 eV
 dipol+quadrupol energy correction           -0.000002 eV
 added-field ion interaction          0.140512 eV  (added to PSCEN)


 eigenvalues of (default mixing * dielectric matrix)
  average eigenvalue GAMMA=   0.8363
  2.4496  0.9683  0.9683  0.1801  0.3455  0.4713  0.4713

  free energy =  -0.503389028116E+03  energy without entropy=  -0.503331747958E+03


--------------------------------------------------------------------------------------------------------




--------------------------------------- Iteration     11(   9)  ---------------------------------------


    POTLOK:  cpu time    0.1064: real time    0.1072
    SETDIJ:  cpu time    0.0159: real time    0.0159
    EDDIAG:  cpu time    5.5799: real time    5.5843
  RMM-DIIS:  cpu time    7.5496: real time    7.5570
    ORTHCH:  cpu time    1.8101: real time    1.8109
       DOS:  cpu time    0.0008: real time    0.0008
    --------------------------------------------
      LOOP:  cpu time   15.0626: real time   15.0762

 eigenvalue-minimisations  :  3086
 total energy-change (2. order) : 0.2671732E-06  (-0.4361761E-07)
 number of electron    1583.9998958 magnetization 
 augmentation part     1010.1288292 magnetization 

 DIPCOR: dipole corrections for dipol
 direction  3 min pos   148,
 dipolmoment           0.000000      0.000000      0.010268 electrons x Angstroem
 Tr[quadrupol]    -61676.616027

 energy correction for charged system         0.000000 eV
 dipol+quadrupol energy correction           -0.000002 eV
 added-field ion interaction          0.140088 eV  (added to PSCEN)


  free energy =  -0.503389027848E+03  energy without entropy=  -0.503331742598E+03


--------------------------------------------------------------------------------------------------------




------------------------ aborting loop because EDIFF is reached ----------------------------------------


    CHARGE:  cpu time    1.5208: real time    1.5223
    FORLOC:  cpu time    0.0717: real time    0.0717
    FORNL :  cpu time    4.7876: real time    4.7916
    STRESS:  cpu time   14.1368: real time   14.1480
    FORCOR:  cpu time    0.1484: real time    0.1484
    FORHAR:  cpu time    0.0858: real time    0.0858
    MIXING:  cpu time    0.0045: real time    0.0045
    OFIELD:  cpu time    0.0001: real time    0.0001

  Number of pair interactions contributing to vdW energy:  648756
  Edisp (eV):  -11.19135
    FORVDW:  cpu time    0.0922: real time    0.0923

  FORCE on cell =-STRESS in cart. coord.  units (eV):
  Direction    XX          YY          ZZ          XY          YZ          ZX
  --------------------------------------------------------------------------------------
  Alpha Z  3602.41478  3602.41478  3602.41478
  Ewald  720686.11843720686.12269************     0.00369     0.00147    -0.00254
  Hartree772892.48243772892.48436************     0.00167     0.00066    -0.00115
  E(xc)   -9253.03462 -9253.03293 -9272.61568     0.00147    -0.00002     0.00003
  Local  ************************************    -0.08173    -0.00207     0.00358
  n-local -3041.20460 -3038.87396 -3130.34432    -2.02688     1.25504     2.17049
  augment 13610.39833 13610.47838 13680.75236     0.06933    -0.00014     0.00022
  Kinetic 12910.13391 12914.86533 13008.28500    -4.10262     2.61244     4.52614
  Fock        0.00000     0.00000     0.00000     0.00000     0.00000     0.00000
  vdW       -15.67443   -15.67443   -10.84114    -0.00000     0.00000    -0.00001
  -------------------------------------------------------------------------------------
  Total      11.03830    11.03830    -3.65636     0.00000     0.00000     0.00000
  in kB       4.20116     4.20116    -1.39161     0.00000     0.00000     0.00000
  external pressure =        2.34 kB  Pullay stress =        0.00 kB



--------------------------------------------------------------------------------------------------------



  FREE ENERGIE OF THE ION-ELECTRON SYSTEM (eV)
  ---------------------------------------------------
  free  energy   TOTEN  =      -514.58037557 eV

  energy  without entropy=     -514.52309032  energy(sigma->0) =     -514.55173295
 
 d Force = 0.2404042E-03[ 0.198E-03, 0.282E-03]  d Energy = 0.3627916E-03-0.122E-03
 d Force =-0.1657155E+03[-0.166E+03,-0.166E+03]  d Ewald  =-0.1657155E+03 0.198E-06


--------------------------------------------------------------------------------------------------------


    POTLOK:  cpu time    0.1195: real time    0.1198


--------------------------------------------------------------------------------------------------------


 Quasi-Newton relaxation of ions (Broydens 2nd method)
  g(Force)  = 0.321E-04   g(Stress)= 0.000E+00

 retain information from N=  1 steps
 eigenvalues of (default step * inverse Hessian matrix)
  average eigenvalue of G=  11.7250
 eigenvalue spectrum of G is 11.7250


--------------------------------------------------------------------------------------------------------


    WAVPRE:  cpu time    0.0609: real time    0.0631
    FEWALD:  cpu time    0.0035: real time    0.0035
    ORTHCH:  cpu time    3.3583: real time    3.3607
     LOOP+:  cpu time  226.8123: real time  227.0355


--------------------------------------- Iteration     12(   1)  ---------------------------------------


    POTLOK:  cpu time    0.1100: real time    0.1103
    SETDIJ:  cpu time    0.0105: real time    0.0106
     EDDAV:  cpu time   30.0104: real time   30.0364
       DOS:  cpu time    0.0012: real time    0.0012
    CHARGE:  cpu time    1.7114: real time    1.7128
    MIXING:  cpu time    0.0027: real time    0.0027
    --------------------------------------------
      LOOP:  cpu time   31.8462: real time   31.8741

 eigenvalue-minimisations  :  6192
 total energy-change (2. order) : 0.1842470E-03  (-0.5191183E-03)
 number of electron    1583.9998963 magnetization 
 augmentation part     1010.1287152 magnetization 

 DIPCOR: dipole corrections for dipol
 direction  3 min pos   148,
 dipolmoment           0.000000      0.000000      0.010286 electrons x Angstroem
 Tr[quadrupol]    -61676.617069

 energy correction for charged system         0.000000 eV
 dipol+quadrupol energy correction           -0.000002 eV
 added-field ion interaction          0.140372 eV  (added to PSCEN)


  free energy =  -0.503388843869E+03  energy without entropy=  -0.503331588679E+03


--------------------------------------------------------------------------------------------------------




--------------------------------------- Iteration     12(   2)  ---------------------------------------


    POTLOK:  cpu time    0.1067: real time    0.1072
    SETDIJ:  cpu time    0.0105: real time    0.0106
    EDDIAG:  cpu time    5.4855: real time    5.4906
  RMM-DIIS:  cpu time   13.8977: real time   13.9137
    ORTHCH:  cpu time    1.9040: real time    1.9052
       DOS:  cpu time    0.0008: real time    0.0008
    CHARGE:  cpu time    1.7081: real time    1.7096
    MIXING:  cpu time    0.0035: real time    0.0035
    --------------------------------------------
      LOOP:  cpu time   23.1169: real time   23.1412

 eigenvalue-minimisations  :  5919
 total energy-change (2. order) :-0.9106298E-05  (-0.8474325E-05)
 number of electron    1583.9998963 magnetization 
 augmentation part     1010.1268133 magnetization 

 DIPCOR: dipole corrections for dipol
 direction  3 min pos   148,
 dipolmoment           0.000000      0.000000      0.009760 electrons x Angstroem
 Tr[quadrupol]    -61676.619281

 energy correction for charged system         0.000000 eV
 dipol+quadrupol energy correction           -0.000002 eV
 added-field ion interaction          0.133200 eV  (added to PSCEN)


 eigenvalues of (default mixing * dielectric matrix)
  average eigenvalue GAMMA=   0.3577
  0.3577

  free energy =  -0.503388852975E+03  energy without entropy=  -0.503331544072E+03


--------------------------------------------------------------------------------------------------------




--------------------------------------- Iteration     12(   3)  ---------------------------------------


    POTLOK:  cpu time    0.1059: real time    0.1067
    SETDIJ:  cpu time    0.0105: real time    0.0105
    EDDIAG:  cpu time    5.4647: real time    5.4694
  RMM-DIIS:  cpu time   12.6121: real time   12.7168
    ORTHCH:  cpu time    2.9565: real time    2.9585
       DOS:  cpu time    0.0008: real time    0.0008
    CHARGE:  cpu time    1.8522: real time    1.8534
    MIXING:  cpu time    0.0139: real time    0.0139
    --------------------------------------------
      LOOP:  cpu time   23.0167: real time   23.1301

 eigenvalue-minimisations  :  5202
 total energy-change (2. order) :-0.4590256E-06  (-0.1061744E-05)
 number of electron    1583.9998963 magnetization 
 augmentation part     1010.1274928 magnetization 

 DIPCOR: dipole corrections for dipol
 direction  3 min pos   148,
 dipolmoment           0.000000      0.000000      0.010452 electrons x Angstroem
 Tr[quadrupol]    -61676.618684

 energy correction for charged system         0.000000 eV
 dipol+quadrupol energy correction           -0.000002 eV
 added-field ion interaction          0.142644 eV  (added to PSCEN)


 eigenvalues of (default mixing * dielectric matrix)
  average eigenvalue GAMMA=   0.3300
  0.3883  0.2717

  free energy =  -0.503388853434E+03  energy without entropy=  -0.503331571790E+03


--------------------------------------------------------------------------------------------------------




--------------------------------------- Iteration     12(   4)  ---------------------------------------


    POTLOK:  cpu time    0.1813: real time    0.1822
    SETDIJ:  cpu time    0.0207: real time    0.0207
    EDDIAG:  cpu time    8.4466: real time    8.7418
  RMM-DIIS:  cpu time    7.8036: real time    7.8147
    ORTHCH:  cpu time    1.7924: real time    1.7939
       DOS:  cpu time    0.0008: real time    0.0008
    CHARGE:  cpu time    1.7096: real time    1.7105
    MIXING:  cpu time    0.0036: real time    0.0038
    --------------------------------------------
      LOOP:  cpu time   19.9586: real time   20.2684

 eigenvalue-minimisations  :  3185
 total energy-change (2. order) : 0.1798617E-07  (-0.1438926E-06)
 number of electron    1583.9998963 magnetization 
 augmentation part     1010.1284031 magnetization 

 DIPCOR: dipole corrections for dipol
 direction  3 min pos   148,
 dipolmoment           0.000000      0.000000      0.010176 electrons x Angstroem
 Tr[quadrupol]    -61676.618091

 energy correction for charged system         0.000000 eV
 dipol+quadrupol energy correction           -0.000002 eV
 added-field ion interaction          0.138866 eV  (added to PSCEN)


 eigenvalues of (default mixing * dielectric matrix)
  average eigenvalue GAMMA=   0.4166
  0.5287  0.5287  0.1924

  free energy =  -0.503388853416E+03  energy without entropy=  -0.503331583419E+03


--------------------------------------------------------------------------------------------------------




--------------------------------------- Iteration     12(   5)  ---------------------------------------


    POTLOK:  cpu time    0.1058: real time    0.1067
    SETDIJ:  cpu time    0.0105: real time    0.0105
    EDDIAG:  cpu time    5.4944: real time    5.4989
  RMM-DIIS:  cpu time    7.4258: real time    7.4338
    ORTHCH:  cpu time    1.9245: real time    1.9257
       DOS:  cpu time    0.0008: real time    0.0008
    --------------------------------------------
      LOOP:  cpu time   14.9619: real time   14.9763

 eigenvalue-minimisations  :  3038
 total energy-change (2. order) :-0.2421439E-07  (-0.3957811E-07)
 number of electron    1583.9998963 magnetization 
 augmentation part     1010.1284031 magnetization 

 DIPCOR: dipole corrections for dipol
 direction  3 min pos   148,
 dipolmoment           0.000000      0.000000      0.010276 electrons x Angstroem
 Tr[quadrupol]    -61676.618483

 energy correction for charged system         0.000000 eV
 dipol+quadrupol energy correction           -0.000002 eV
 added-field ion interaction          0.140238 eV  (added to PSCEN)


  free energy =  -0.503388853440E+03  energy without entropy=  -0.503331570351E+03


--------------------------------------------------------------------------------------------------------




------------------------ aborting loop because EDIFF is reached ----------------------------------------


    CHARGE:  cpu time    1.5236: real time    1.5250
    FORLOC:  cpu time    0.0694: real time    0.0694
    FORNL :  cpu time    4.7786: real time    4.7827
    STRESS:  cpu time   14.1004: real time   14.1128
    FORCOR:  cpu time    0.1513: real time    0.1514
    FORHAR:  cpu time    0.0859: real time    0.0860
    MIXING:  cpu time    0.0037: real time    0.0037
    OFIELD:  cpu time    0.0001: real time    0.0001

  Number of pair interactions contributing to vdW energy:  648756
  Edisp (eV):  -11.19157
    FORVDW:  cpu time    0.0922: real time    0.0923

  FORCE on cell =-STRESS in cart. coord.  units (eV):
  Direction    XX          YY          ZZ          XY          YZ          ZX
  --------------------------------------------------------------------------------------
  Alpha Z  3602.41478  3602.41478  3602.41478
  Ewald  720703.59584720703.60007************     0.00366     0.00145    -0.00251
  Hartree772908.86142772908.86334************     0.00166     0.00066    -0.00114
  E(xc)   -9253.03970 -9253.03801 -9272.62024     0.00147    -0.00002     0.00003
  Local  ************************************    -0.08169    -0.00205     0.00355
  n-local -3041.24686 -3038.91016 -3130.36915    -2.03212     1.25455     2.16966
  augment 13610.38793 13610.46799 13680.73685     0.06933    -0.00014     0.00021
  Kinetic 12910.14813 12914.88660 13008.29948    -4.10873     2.61224     4.52579
  Fock        0.00000     0.00000     0.00000     0.00000     0.00000     0.00000
  vdW       -15.67487   -15.67488   -10.84215    -0.00000     0.00000    -0.00001
  -------------------------------------------------------------------------------------
  Total      10.95614    10.95614    -3.72932    -0.00000     0.00000     0.00000
  in kB       4.16989     4.16989    -1.41937    -0.00000     0.00000     0.00000
  external pressure =        2.31 kB  Pullay stress =        0.00 kB



--------------------------------------------------------------------------------------------------------



  FREE ENERGIE OF THE ION-ELECTRON SYSTEM (eV)
  ---------------------------------------------------
  free  energy   TOTEN  =      -514.58042488 eV

  energy  without entropy=     -514.52314179  energy(sigma->0) =     -514.55178334
 
 d Force = 0.3289754E-04[ 0.308E-04, 0.350E-04]  d Energy = 0.4931240E-04-0.164E-04
 d Force =-0.1733944E+02[-0.173E+02,-0.173E+02]  d Ewald  =-0.1733944E+02-0.120E-07


--------------------------------------------------------------------------------------------------------


    POTLOK:  cpu time    0.1197: real time    0.1199


--------------------------------------------------------------------------------------------------------


 Quasi-Newton relaxation of ions (Broydens 2nd method)
  g(Force)  = 0.249E-04   g(Stress)= 0.000E+00

 retain information from N=  1 steps
 eigenvalues of (default step * inverse Hessian matrix)
  average eigenvalue of G=   6.8651
 eigenvalue spectrum of G is  6.8651


--------------------------------------------------------------------------------------------------------


  
 reached required accuracy - stopping structural energy minimisation
     LOOP+:  cpu time  133.8873: real time  134.3978
    4ORBIT:  cpu time    0.0000: real time    0.0000

 total amount of memory used by VASP MPI-rank0   216230. kBytes
=======================================================================

   base      :      30000. kBytes
   nonlr-proj:      50595. kBytes
   fftplans  :       7568. kBytes
   grid      :      35696. kBytes
   one-center:       2239. kBytes
   wavefun   :      90132. kBytes
 
  
  
 General timing and accounting informations for this job:
 ========================================================
  
                  Total CPU time used (sec):     3492.705
                            User time (sec):     3476.215
                          System time (sec):       16.490
                         Elapsed time (sec):     3501.059
  
                   Maximum memory used (kb):      568860.
                   Average memory used (kb):           0.
  
                          Minor page faults:      1769869
                          Major page faults:            0
                 Voluntary context switches:         5088
