 vasp.5.4.4.18Apr17-6-g9f103f2a35 (build Jun 30 2017 19:19:18) complex          
  
 executed on         MareNostrum4 date 2022.05.13  14:35:19
 running on   48 total cores
 distrk:  each k-point on   48 cores,    1 groups
 distr:  one band on NCORES_PER_BAND=   1 cores,   48 groups


--------------------------------------------------------------------------------------------------------


 INCAR:
 POTCAR:    PAW_PBE Ru 04Feb2005                  
 POTCAR:    PAW_PBE H 15Jun2001                   
 POTCAR:    PAW_PBE C 08Apr2002                   

 ----------------------------------------------------------------------------- 
|                                                                             |
|           W    W    AA    RRRRR   N    N  II  N    N   GGGG   !!!           |
|           W    W   A  A   R    R  NN   N  II  NN   N  G    G  !!!           |
|           W    W  A    A  R    R  N N  N  II  N N  N  G       !!!           |
|           W WW W  AAAAAA  RRRRR   N  N N  II  N  N N  G  GGG   !            |
|           WW  WW  A    A  R   R   N   NN  II  N   NN  G    G                |
|           W    W  A    A  R    R  N    N  II  N    N   GGGG   !!!           |
|                                                                             |
|      For optimal performance we recommend to set                            |
|        NCORE= 4 - approx SQRT( number of cores)                             |
|      NCORE specifies how many cores store one orbital (NPAR=cpu/NCORE).     |
|      This setting can  greatly improve the performance of VASP for DFT.     |
|      The default,   NCORE=1            might be grossly inefficient         |
|      on modern multi-core architectures or massively parallel machines.     |
|      Do your own testing !!!!                                               |
|      Unfortunately you need to use the default for GW and RPA calculations. |
|      (for HF NCORE is supported but not extensively tested yet)             |
|                                                                             |
 ----------------------------------------------------------------------------- 

 POTCAR:    PAW_PBE Ru 04Feb2005                  
  local pseudopotential read in
  partial core-charges read in
  partial kinetic energy density read in
  atomic valenz-charges read in
  non local Contribution for L=           2  read in
    real space projection operators read in
  non local Contribution for L=           2  read in
    real space projection operators read in
  non local Contribution for L=           0  read in
    real space projection operators read in
  non local Contribution for L=           0  read in
    real space projection operators read in
  non local Contribution for L=           1  read in
    real space projection operators read in
  non local Contribution for L=           1  read in
    real space projection operators read in
    PAW grid and wavefunctions read in
 
   number of l-projection  operators is LMAX  =           6
   number of lm-projection operators is LMMAX =          18
 
 POTCAR:    PAW_PBE H 15Jun2001                   
  local pseudopotential read in
  atomic valenz-charges read in
  non local Contribution for L=           0  read in
    real space projection operators read in
  non local Contribution for L=           0  read in
    real space projection operators read in
  non local Contribution for L=           1  read in
    real space projection operators read in
    PAW grid and wavefunctions read in
 
   number of l-projection  operators is LMAX  =           3
   number of lm-projection operators is LMMAX =           5
 
 POTCAR:    PAW_PBE C 08Apr2002                   
  local pseudopotential read in
  partial core-charges read in
  partial kinetic energy density read in
  atomic valenz-charges read in
  non local Contribution for L=           0  read in
    real space projection operators read in
  non local Contribution for L=           0  read in
    real space projection operators read in
  non local Contribution for L=           1  read in
    real space projection operators read in
  non local Contribution for L=           1  read in
    real space projection operators read in
    PAW grid and wavefunctions read in
 
   number of l-projection  operators is LMAX  =           4
   number of lm-projection operators is LMMAX =           8
 
 Optimization of the real space projectors (new method)

 maximal supplied QI-value         = 13.98
 optimisation between [QCUT,QGAM] = [ 10.77, 21.68] = [ 32.47,131.56] Ry 
 Optimized for a Real-space Cutoff    1.51 Angstroem

   l    n(q)    QCUT    max X(q) W(low)/X(q) W(high)/X(q)  e(spline) 
   2      9    10.768    61.733    0.26E-03    0.97E-04    0.28E-06
   2      9    10.768    59.886    0.26E-03    0.10E-03    0.29E-06
   0     10    10.768    23.358    0.12E-03    0.28E-03    0.38E-06
   0     10    10.768    11.320    0.93E-04    0.23E-03    0.31E-06
   1      9    10.768    14.765    0.48E-03    0.21E-03    0.19E-06
   1      9    10.768     8.283    0.36E-03    0.16E-03    0.15E-06
 Optimization of the real space projectors (new method)

 maximal supplied QI-value         = 34.20
 optimisation between [QCUT,QGAM] = [ 10.60, 21.55] = [ 31.48,130.03] Ry 
 Optimized for a Real-space Cutoff    1.23 Angstroem

   l    n(q)    QCUT    max X(q) W(low)/X(q) W(high)/X(q)  e(spline) 
   0      8    10.603    19.460    0.37E-03    0.59E-03    0.23E-06
   0      8    10.603    12.209    0.35E-03    0.56E-03    0.22E-06
   1      7    10.603     4.655    0.70E-04    0.28E-03    0.29E-06
 Optimization of the real space projectors (new method)

 maximal supplied QI-value         = 25.13
 optimisation between [QCUT,QGAM] = [ 10.81, 21.61] = [ 32.71,130.83] Ry 
 Optimized for a Real-space Cutoff    1.23 Angstroem

   l    n(q)    QCUT    max X(q) W(low)/X(q) W(high)/X(q)  e(spline) 
   0      8    10.807   115.676    0.36E-03    0.72E-03    0.24E-06
   0      8    10.807    87.132    0.35E-03    0.71E-03    0.24E-06
   1      7    10.807     4.429    0.19E-03    0.39E-03    0.11E-06
   1      7    10.807     2.733    0.14E-03    0.28E-03    0.13E-06
  PAW_PBE Ru 04Feb2005                  :
 energy of atom  1       EATOM= -454.8837
 kinetic energy error for atom=    0.0028 (will be added to EATOM!!)
  PAW_PBE H 15Jun2001                   :
 energy of atom  2       EATOM=  -12.4884
 kinetic energy error for atom=    0.0045 (will be added to EATOM!!)
  PAW_PBE C 08Apr2002                   :
 energy of atom  3       EATOM= -147.1560
 kinetic energy error for atom=    0.0116 (will be added to EATOM!!)
 
 
 POSCAR: Ru  H  C                                
  positions in cartesian coordinates
  No initial velocities read in
 exchange correlation table for  LEXCH =        8
   RHO(1)=    0.500       N(1)  =     2000
   RHO(2)=  100.500       N(2)  =     4000
 


--------------------------------------------------------------------------------------------------------


 ion  position               nearest neighbor table
   1  0.000  0.083  0.000-  14 2.65  13 2.65 114 2.65  57 2.71   2 2.71 101 2.71 102 2.71   3 2.71
                           107 2.71
   2  0.167  0.000  0.000-  69 2.65  14 2.65  16 2.65  57 2.71   1 2.71  60 2.71   4 2.71   3 2.71
                            58 2.71
   3  0.083  0.167  0.000-  19 2.65  15 2.65  14 2.65   7 2.71 107 2.71   1 2.71   8 2.71   2 2.71
                             4 2.71
   4  0.250  0.083  0.000-  17 2.65  16 2.65  15 2.65  60 2.71   5 2.71   6 2.71   2 2.71   8 2.71
                             3 2.71
   5  0.417  0.000  0.000-  72 2.65  17 2.65 109 2.65 153 2.71   4 2.71  97 2.71  60 2.71 151 2.71
                             6 2.71
   6  0.333  0.167  0.000-  22 2.65  18 2.65  17 2.65  10 2.71   8 2.71   4 2.71  11 2.71   5 2.71
                            97 2.71
   7  1.000  0.333  0.000-  19 2.65 120 2.65  20 2.65   3 2.71 107 2.71 108 2.71   8 2.71 149 2.71
                             9 2.71
   8  0.167  0.250  0.000-  22 2.65  15 2.65  20 2.65  10 2.71   6 2.71   3 2.71   7 2.71   4 2.71
                             9 2.71
   9  0.083  0.417  0.000-  21 2.65  61 2.65  20 2.65  49 2.71  50 2.71 149 2.71  10 2.71   8 2.71
                             7 2.71
  10  0.250  0.333  0.000-  22 2.65  23 2.65  21 2.65   6 2.71   8 2.71   9 2.71  11 2.71  50 2.71
                            12 2.71
  11  0.417  0.250  0.000- 115 2.65  18 2.65  23 2.65 103 2.71  99 2.71   6 2.71  10 2.71  97 2.71
                            12 2.71
  12  0.333  0.417  0.000-  24 2.65  64 2.65  23 2.65  52 2.71  53 2.71 103 2.71  50 2.71  11 2.71
                            10 2.71
  13  0.000  0.000  0.107- 125 2.64  25 2.64  81 2.64 101 2.65   1 2.65  57 2.65  14 2.71 168 2.71
                            69 2.71 113 2.71  68 2.71 114 2.71
  14  0.083  0.083  0.107-  25 2.64  26 2.64  27 2.64   1 2.65   2 2.65   3 2.65  69 2.71  13 2.71
                           114 2.71  16 2.71  19 2.71  15 2.71
  15  0.167  0.167  0.107-  32 2.64  27 2.64  28 2.64   8 2.65   3 2.65   4 2.65  20 2.71  22 2.71
                            17 2.71  19 2.71  16 2.71  14 2.71
  16  0.250  0.000  0.107-  84 2.64  28 2.64  26 2.64  60 2.65   4 2.65   2 2.65  17 2.71  72 2.71
                            69 2.71  14 2.71  15 2.71  71 2.71
  17  0.333  0.083  0.107-  28 2.64  29 2.64  30 2.64   4 2.65   5 2.65   6 2.65  72 2.71  16 2.71
                            15 2.71 109 2.71  22 2.71  18 2.71
  18  0.417  0.167  0.107-  35 2.64  30 2.64 121 2.64  11 2.65   6 2.65  97 2.65  23 2.71 115 2.71
                           110 2.71  22 2.71 109 2.71  17 2.71
  19  1.000  0.250  0.107- 131 2.64  31 2.64  27 2.64 107 2.65   7 2.65   3 2.65 114 2.71 119 2.71
                            20 2.71  15 2.71 120 2.71  14 2.71
  20  0.083  0.333  0.107-  32 2.64  31 2.64  33 2.64   8 2.65   7 2.65   9 2.65  15 2.71  22 2.71
                           120 2.71  21 2.71  19 2.71  61 2.71
  21  0.167  0.417  0.107-  33 2.64  74 2.64  34 2.64   9 2.65  50 2.65  10 2.65  62 2.71  61 2.71
                            20 2.71  64 2.71  22 2.71  23 2.71
  22  0.250  0.250  0.107-  32 2.64  34 2.64  30 2.64   8 2.65  10 2.65   6 2.65  15 2.71  20 2.71
                            23 2.71  18 2.71  17 2.71  21 2.71
  23  0.333  0.333  0.107-  35 2.64  34 2.64  36 2.64  11 2.65  10 2.65  12 2.65  18 2.71 115 2.71
                            24 2.71  22 2.71  64 2.71  21 2.71
  24  0.417  0.417  0.107-  36 2.64  77 2.64 127 2.64  12 2.65  53 2.65 103 2.65  65 2.71  64 2.71
                            23 2.71 157 2.71 115 2.71 116 2.71
  25  0.000  0.083  0.214-  38 2.60  37 2.60 138 2.60  14 2.64  13 2.64 114 2.64  81 2.71  26 2.71
                           125 2.71 126 2.71  27 2.71 131 2.71
  26  0.167  0.000  0.214-  93 2.60  38 2.60  40 2.60  69 2.64  14 2.64  16 2.64  81 2.71  25 2.71
                            84 2.71  28 2.71  27 2.71  82 2.71
  27  0.083  0.167  0.214-  43 2.60  39 2.60  38 2.60  19 2.64  15 2.64  14 2.64  31 2.71 131 2.71
                            25 2.71  32 2.71  26 2.71  28 2.71
  28  0.250  0.083  0.214-  41 2.60  40 2.60  39 2.60  17 2.64  16 2.64  15 2.64  84 2.71  29 2.71
                            30 2.71  26 2.71  32 2.71  27 2.71
  29  0.417  0.000  0.214-  96 2.60  41 2.60 133 2.60  72 2.64  17 2.64 109 2.64 177 2.71  28 2.71
                           121 2.71  84 2.71 175 2.71  30 2.71
  30  0.333  0.167  0.214-  46 2.60  42 2.60  41 2.60  22 2.64  18 2.64  17 2.64  34 2.71  32 2.71
                            28 2.71  35 2.71  29 2.71 121 2.71
  31  1.000  0.333  0.214-  43 2.60 144 2.60  44 2.60  19 2.64 120 2.64  20 2.64  27 2.71 131 2.71
                           132 2.71  32 2.71 173 2.71  33 2.71
  32  0.167  0.250  0.214-  46 2.60  39 2.60  44 2.60  22 2.64  15 2.64  20 2.64  34 2.71  30 2.71
                            27 2.71  31 2.71  28 2.71  33 2.71
  33  0.083  0.417  0.214-  45 2.60  85 2.60  44 2.60  21 2.64  61 2.64  20 2.64  73 2.71  74 2.71
                           173 2.71  34 2.71  32 2.71  31 2.71
  34  0.250  0.333  0.214-  46 2.60  47 2.60  45 2.60  22 2.64  23 2.64  21 2.64  30 2.71  32 2.71
                            33 2.71  35 2.71  74 2.71  36 2.71
  35  0.417  0.250  0.214- 139 2.60  42 2.60  47 2.60 115 2.64  18 2.64  23 2.64 127 2.71 123 2.71
                            30 2.71  34 2.71 121 2.71  36 2.71
  36  0.333  0.417  0.214-  48 2.60  88 2.60  47 2.60  24 2.64  64 2.64  23 2.64  76 2.71  77 2.71
                           127 2.71  74 2.71  35 2.71  34 2.71
  37  0.000  0.000  0.317- 125 2.60  25 2.60  81 2.60  38 2.71 192 2.71 137 2.71  93 2.71 138 2.71
                            92 2.71
  38  0.083  0.083  0.317-  25 2.60  26 2.60  27 2.60  93 2.71  37 2.71 138 2.71  40 2.71  43 2.71
                            39 2.71
  39  0.167  0.167  0.317-  32 2.60  27 2.60  28 2.60  44 2.71  46 2.71  41 2.71  43 2.71  40 2.71
                            38 2.71
  40  0.250  0.000  0.317-  84 2.60  28 2.60  26 2.60  41 2.71  96 2.71  93 2.71  38 2.71  95 2.71
                            39 2.71
  41  0.333  0.083  0.317-  28 2.60  29 2.60  30 2.60  96 2.71  40 2.71  39 2.71 133 2.71  46 2.71
                            42 2.71
  42  0.417  0.167  0.317-  35 2.60  30 2.60 121 2.60  47 2.71 139 2.71 134 2.71  46 2.71 133 2.71
                            41 2.71
  43  1.000  0.250  0.317- 131 2.60  31 2.60  27 2.60 138 2.71 143 2.71  44 2.71  39 2.71  38 2.71
                           144 2.71
  44  0.083  0.333  0.317-  32 2.60  31 2.60  33 2.60  39 2.71  46 2.71 144 2.71  45 2.71  43 2.71
                            85 2.71
  45  0.167  0.417  0.317- 214 1.39 229 2.36  33 2.60  74 2.60  34 2.60  86 2.71  85 2.71  44 2.71
                            88 2.71  46 2.71  47 2.71
  46  0.250  0.250  0.317- 216 1.32 230 2.23  32 2.60  34 2.60  30 2.60  39 2.71  44 2.71  47 2.71
                            42 2.71  45 2.71  41 2.71
  47  0.333  0.333  0.317- 213 1.57 228 2.30  35 2.60  34 2.60  36 2.60 227 2.66  42 2.71 139 2.71
                            48 2.71  46 2.71  88 2.71  45 2.71
  48  0.417  0.417  0.317- 209 1.80 206 2.00 226 2.36 225 2.48  36 2.60  77 2.60 127 2.60  89 2.71
                            88 2.71  47 2.71 181 2.71 139 2.71 140 2.71
  49  0.000  0.583  0.000-  62 2.65  61 2.65 162 2.65   9 2.71  50 2.71 149 2.71 150 2.71  51 2.71
                           155 2.71
  50  0.167  0.500  0.000-  21 2.65  62 2.65  64 2.65   9 2.71  49 2.71  52 2.71  12 2.71  51 2.71
                            10 2.71
  51  0.083  0.667  0.000-  67 2.65  63 2.65  62 2.65  55 2.71 155 2.71  49 2.71  56 2.71  50 2.71
                            52 2.71
  52  0.250  0.583  0.000-  65 2.65  64 2.65  63 2.65  12 2.71  53 2.71  54 2.71  50 2.71  56 2.71
                            51 2.71
  53  0.417  0.500  0.000-  24 2.65  65 2.65 157 2.65 145 2.71 105 2.71  12 2.71  52 2.71 103 2.71
                            54 2.71
  54  0.333  0.667  0.000-  70 2.65  66 2.65  65 2.65  58 2.71  56 2.71  59 2.71 145 2.71  52 2.71
                            53 2.71
  55  1.000  0.833  0.000-  67 2.65 168 2.65  68 2.65  51 2.71 155 2.71 156 2.71  56 2.71 101 2.71
                            57 2.71
  56  0.167  0.750  0.000-  70 2.65  63 2.65  68 2.65  54 2.71  58 2.71  51 2.71  55 2.71  52 2.71
                            57 2.71
  57  0.083  0.917  0.000-  69 2.65  13 2.65  68 2.65   1 2.71   2 2.71 101 2.71  58 2.71  56 2.71
                            55 2.71
  58  0.250  0.833  0.000-  70 2.65  71 2.65  69 2.65  54 2.71  59 2.71  56 2.71  57 2.71  60 2.71
                             2 2.71
  59  0.417  0.750  0.000-  66 2.65  71 2.65 163 2.65  58 2.71  54 2.71 151 2.71 147 2.71 145 2.71
                            60 2.71
  60  0.333  0.917  0.000-  16 2.65  71 2.65  72 2.65   4 2.71   2 2.71  58 2.71   5 2.71  59 2.71
                           151 2.71
  61  0.000  0.500  0.107- 173 2.64  73 2.64  33 2.64 149 2.65  49 2.65   9 2.65  62 2.71 120 2.71
                           161 2.71  21 2.71 162 2.71  20 2.71
  62  0.083  0.583  0.107-  73 2.64  74 2.64  75 2.64  49 2.65  50 2.65  51 2.65  21 2.71  61 2.71
                           162 2.71  64 2.71  67 2.71  63 2.71
  63  0.167  0.667  0.107-  80 2.64  75 2.64  76 2.64  56 2.65  51 2.65  52 2.65  68 2.71  70 2.71
                            65 2.71  67 2.71  64 2.71  62 2.71
  64  0.250  0.500  0.107-  76 2.64  36 2.64  74 2.64  52 2.65  12 2.65  50 2.65  65 2.71  24 2.71
                            21 2.71  62 2.71  63 2.71  23 2.71
  65  0.333  0.583  0.107-  76 2.64  77 2.64  78 2.64  52 2.65  53 2.65  54 2.65  24 2.71  64 2.71
                            63 2.71 157 2.71  70 2.71  66 2.71
  66  0.417  0.667  0.107-  83 2.64 169 2.64  78 2.64  59 2.65 145 2.65  54 2.65  71 2.71 163 2.71
                           158 2.71  70 2.71 157 2.71  65 2.71
  67  1.000  0.750  0.107- 179 2.64  79 2.64  75 2.64 155 2.65  55 2.65  51 2.65 162 2.71 167 2.71
                            68 2.71  63 2.71 168 2.71  62 2.71
  68  0.083  0.833  0.107-  80 2.64  79 2.64  81 2.64  56 2.65  55 2.65  57 2.65  63 2.71  70 2.71
                           168 2.71  69 2.71  67 2.71  13 2.71
  69  0.167  0.917  0.107-  81 2.64  26 2.64  82 2.64  57 2.65   2 2.65  58 2.65  14 2.71  13 2.71
                            68 2.71  16 2.71  70 2.71  71 2.71
  70  0.250  0.750  0.107-  80 2.64  78 2.64  82 2.64  56 2.65  54 2.65  58 2.65  63 2.71  68 2.71
                            71 2.71  66 2.71  65 2.71  69 2.71
  71  0.333  0.833  0.107-  83 2.64  84 2.64  82 2.64  59 2.65  60 2.65  58 2.65  66 2.71 163 2.71
                            72 2.71  70 2.71  16 2.71  69 2.71
  72  0.417  0.917  0.107-  29 2.64  84 2.64 175 2.64   5 2.65  60 2.65 151 2.65  17 2.71  16 2.71
                           164 2.71  71 2.71 109 2.71 163 2.71
  73  0.000  0.583  0.214-  86 2.60  85 2.60 186 2.60  62 2.64  61 2.64 162 2.64  33 2.71  74 2.71
                           173 2.71 174 2.71  75 2.71 179 2.71
  74  0.167  0.500  0.214-  45 2.60  86 2.60  88 2.60  21 2.64  62 2.64  64 2.64  33 2.71  73 2.71
                            76 2.71  36 2.71  75 2.71  34 2.71
  75  0.083  0.667  0.214-  91 2.60  87 2.60  86 2.60  67 2.64  63 2.64  62 2.64  79 2.71 179 2.71
                            73 2.71  80 2.71  74 2.71  76 2.71
  76  0.250  0.583  0.214-  89 2.60  88 2.60  87 2.60  65 2.64  64 2.64  63 2.64  36 2.71  77 2.71
                            78 2.71  74 2.71  80 2.71  75 2.71
  77  0.417  0.500  0.214-  48 2.60  89 2.60 181 2.60  24 2.64  65 2.64 157 2.64 169 2.71 129 2.71
                            36 2.71  76 2.71  78 2.71 127 2.71
  78  0.333  0.667  0.214-  94 2.60  90 2.60  89 2.60  70 2.64  66 2.64  65 2.64  82 2.71  80 2.71
                            83 2.71 169 2.71  76 2.71  77 2.71
  79  1.000  0.833  0.214-  91 2.60 192 2.60  92 2.60  67 2.64 168 2.64  68 2.64  75 2.71 179 2.71
                           180 2.71  80 2.71 125 2.71  81 2.71
  80  0.167  0.750  0.214-  94 2.60  87 2.60  92 2.60  70 2.64  63 2.64  68 2.64  78 2.71  82 2.71
                            75 2.71  79 2.71  76 2.71  81 2.71
  81  0.083  0.917  0.214-  93 2.60  37 2.60  92 2.60  69 2.64  13 2.64  68 2.64  25 2.71  26 2.71
                           125 2.71  82 2.71  80 2.71  79 2.71
  82  0.250  0.833  0.214-  94 2.60  95 2.60  93 2.60  70 2.64  71 2.64  69 2.64  78 2.71  83 2.71
                            80 2.71  81 2.71  84 2.71  26 2.71
  83  0.417  0.750  0.214-  90 2.60  95 2.60 187 2.60  66 2.64  71 2.64 163 2.64  82 2.71  78 2.71
                           175 2.71 171 2.71 169 2.71  84 2.71
  84  0.333  0.917  0.214-  40 2.60  95 2.60  96 2.60  16 2.64  71 2.64  72 2.64  28 2.71  26 2.71
                            82 2.71  29 2.71  83 2.71 175 2.71
  85  0.000  0.500  0.317- 173 2.60  73 2.60  33 2.60 144 2.71  86 2.71  45 2.71 185 2.71  44 2.71
                           186 2.71
  86  0.083  0.583  0.317-  73 2.60  74 2.60  75 2.60  45 2.71  85 2.71 186 2.71  88 2.71  91 2.71
                            87 2.71
  87  0.167  0.667  0.317-  80 2.60  75 2.60  76 2.60  92 2.71  94 2.71  89 2.71  91 2.71  88 2.71
                            86 2.71
  88  0.250  0.500  0.317- 210 1.52  76 2.60  36 2.60  74 2.60 227 2.62  89 2.71  48 2.71  45 2.71
                            86 2.71  87 2.71  47 2.71
  89  0.333  0.583  0.317- 206 1.80  76 2.60  77 2.60  78 2.60  48 2.71  88 2.71  87 2.71 181 2.71
                            94 2.71  90 2.71
  90  0.417  0.667  0.317-  83 2.60 169 2.60  78 2.60  95 2.71 187 2.71 182 2.71  94 2.71 181 2.71
                            89 2.71
  91  1.000  0.750  0.317- 179 2.60  79 2.60  75 2.60 186 2.71 191 2.71  92 2.71  87 2.71  86 2.71
                           192 2.71
  92  0.083  0.833  0.317-  80 2.60  79 2.60  81 2.60  87 2.71  94 2.71 192 2.71  93 2.71  91 2.71
                            37 2.71
  93  0.167  0.917  0.317-  81 2.60  26 2.60  82 2.60  38 2.71  37 2.71  92 2.71  40 2.71  94 2.71
                            95 2.71
  94  0.250  0.750  0.317-  80 2.60  78 2.60  82 2.60  87 2.71  92 2.71  95 2.71  90 2.71  93 2.71
                            89 2.71
  95  0.333  0.833  0.317-  83 2.60  84 2.60  82 2.60  90 2.71 187 2.71  96 2.71  94 2.71  40 2.71
                            93 2.71
  96  0.417  0.917  0.317-  29 2.60  84 2.60 175 2.60  41 2.71  40 2.71 188 2.71  95 2.71 133 2.71
                           187 2.71
  97  0.500  0.083  0.000- 110 2.65 109 2.65  18 2.65 153 2.71  98 2.71  99 2.71   5 2.71  11 2.71
                             6 2.71
  98  0.667  0.000  0.000- 165 2.65 110 2.65 112 2.65 156 2.71 100 2.71  97 2.71 153 2.71  99 2.71
                           154 2.71
  99  0.583  0.167  0.000- 115 2.65 111 2.65 110 2.65 103 2.71 104 2.71  11 2.71 100 2.71  97 2.71
                            98 2.71
 100  0.750  0.083  0.000- 112 2.65 111 2.65 113 2.65 156 2.71  98 2.71  99 2.71 101 2.71 104 2.71
                           102 2.71
 101  0.917  0.000  0.000-  13 2.65 168 2.65 113 2.65   1 2.71  57 2.71 100 2.71 156 2.71 102 2.71
                            55 2.71
 102  0.833  0.167  0.000- 114 2.65 118 2.65 113 2.65 106 2.71 107 2.71   1 2.71 104 2.71 101 2.71
                           100 2.71
 103  0.500  0.333  0.000- 115 2.65 116 2.65  24 2.65  99 2.71 104 2.71  11 2.71  12 2.71 105 2.71
                            53 2.71
 104  0.667  0.250  0.000- 111 2.65 116 2.65 118 2.65  99 2.71 103 2.71 106 2.71 102 2.71 100 2.71
                           105 2.71
 105  0.583  0.417  0.000- 157 2.65 116 2.65 117 2.65 145 2.71  53 2.71 103 2.71 146 2.71 104 2.71
                           106 2.71
 106  0.750  0.333  0.000- 119 2.65 118 2.65 117 2.65 102 2.71 107 2.71 108 2.71 104 2.71 146 2.71
                           105 2.71
 107  0.917  0.250  0.000-  19 2.65 114 2.65 119 2.65   7 2.71   3 2.71 102 2.71 106 2.71   1 2.71
                           108 2.71
 108  0.833  0.417  0.000- 160 2.65 120 2.65 119 2.65 148 2.71 146 2.71   7 2.71 106 2.71 149 2.71
                           107 2.71
 109  0.500  0.000  0.107- 177 2.64 121 2.64  29 2.64 153 2.65  97 2.65   5 2.65 110 2.71 165 2.71
                            72 2.71  17 2.71  18 2.71 164 2.71
 110  0.583  0.083  0.107- 121 2.64 122 2.64 123 2.64  97 2.65  98 2.65  99 2.65 165 2.71 109 2.71
                            18 2.71 112 2.71 115 2.71 111 2.71
 111  0.667  0.167  0.107- 128 2.64 124 2.64 123 2.64 104 2.65 100 2.65  99 2.65 116 2.71 118 2.71
                           113 2.71 115 2.71 112 2.71 110 2.71
 112  0.750  0.000  0.107- 180 2.64 124 2.64 122 2.64 156 2.65 100 2.65  98 2.65 113 2.71 168 2.71
                           165 2.71 110 2.71 111 2.71 167 2.71
 113  0.833  0.083  0.107- 125 2.64 124 2.64 126 2.64 101 2.65 100 2.65 102 2.65 168 2.71 112 2.71
                            13 2.71 111 2.71 114 2.71 118 2.71
 114  0.917  0.167  0.107- 126 2.64 131 2.64  25 2.64 102 2.65 107 2.65   1 2.65 119 2.71  19 2.71
                           118 2.71  14 2.71 113 2.71  13 2.71
 115  0.500  0.250  0.107-  35 2.64 127 2.64 123 2.64  11 2.65 103 2.65  99 2.65  18 2.71  23 2.71
                           116 2.71 111 2.71  24 2.71 110 2.71
 116  0.583  0.333  0.107- 128 2.64 129 2.64 127 2.64 104 2.65 105 2.65 103 2.65 111 2.71 118 2.71
                           117 2.71 115 2.71 157 2.71  24 2.71
 117  0.667  0.417  0.107- 170 2.64 129 2.64 130 2.64 146 2.65 105 2.65 106 2.65 158 2.71 160 2.71
                           157 2.71 119 2.71 116 2.71 118 2.71
 118  0.750  0.250  0.107- 130 2.64 126 2.64 128 2.64 106 2.65 102 2.65 104 2.65 111 2.71 116 2.71
                           119 2.71 114 2.71 113 2.71 117 2.71
 119  0.833  0.333  0.107- 130 2.64 131 2.64 132 2.64 106 2.65 107 2.65 108 2.65 114 2.71  19 2.71
                           118 2.71 117 2.71 160 2.71 120 2.71
 120  0.917  0.417  0.107- 173 2.64  31 2.64 132 2.64 149 2.65   7 2.65 108 2.65 161 2.71  61 2.71
                            20 2.71 160 2.71  19 2.71 119 2.71
 121  0.500  0.083  0.214- 134 2.60 133 2.60  42 2.60 110 2.64 109 2.64  18 2.64 177 2.71 122 2.71
                           123 2.71  29 2.71  35 2.71  30 2.71
 122  0.667  0.000  0.214- 189 2.60 134 2.60 136 2.60 165 2.64 110 2.64 112 2.64 180 2.71 124 2.71
                           121 2.71 177 2.71 123 2.71 178 2.71
 123  0.583  0.167  0.214- 139 2.60 135 2.60 134 2.60 115 2.64 111 2.64 110 2.64 127 2.71 128 2.71
                            35 2.71 124 2.71 121 2.71 122 2.71
 124  0.750  0.083  0.214- 136 2.60 135 2.60 137 2.60 112 2.64 111 2.64 113 2.64 180 2.71 122 2.71
                           123 2.71 125 2.71 128 2.71 126 2.71
 125  0.917  0.000  0.214-  37 2.60 192 2.60 137 2.60  13 2.64 168 2.64 113 2.64  25 2.71  81 2.71
                           124 2.71 180 2.71  79 2.71 126 2.71
 126  0.833  0.167  0.214- 138 2.60 142 2.60 137 2.60 114 2.64 118 2.64 113 2.64 130 2.71 131 2.71
                            25 2.71 128 2.71 125 2.71 124 2.71
 127  0.500  0.333  0.214- 139 2.60 140 2.60  48 2.60 115 2.64 116 2.64  24 2.64 123 2.71 128 2.71
                            35 2.71  36 2.71 129 2.71  77 2.71
 128  0.667  0.250  0.214- 135 2.60 140 2.60 142 2.60 111 2.64 116 2.64 118 2.64 123 2.71 127 2.71
                           130 2.71 126 2.71 124 2.71 129 2.71
 129  0.583  0.417  0.214- 181 2.60 140 2.60 141 2.60 157 2.64 116 2.64 117 2.64 169 2.71  77 2.71
                           127 2.71 170 2.71 128 2.71 130 2.71
 130  0.750  0.333  0.214- 143 2.60 142 2.60 141 2.60 119 2.64 118 2.64 117 2.64 126 2.71 131 2.71
                           132 2.71 128 2.71 170 2.71 129 2.71
 131  0.917  0.250  0.214-  43 2.60 138 2.60 143 2.60  19 2.64 114 2.64 119 2.64  31 2.71  27 2.71
                           126 2.71 130 2.71  25 2.71 132 2.71
 132  0.833  0.417  0.214- 184 2.60 144 2.60 143 2.60 160 2.64 120 2.64 119 2.64 172 2.71 170 2.71
                            31 2.71 130 2.71 173 2.71 131 2.71
 133  0.500  0.000  0.317- 177 2.60 121 2.60  29 2.60 134 2.71 189 2.71  96 2.71  41 2.71 188 2.71
                            42 2.71
 134  0.583  0.083  0.317- 121 2.60 122 2.60 123 2.60 189 2.71 133 2.71  42 2.71 136 2.71 139 2.71
                           135 2.71
 135  0.667  0.167  0.317- 128 2.60 124 2.60 123 2.60 140 2.71 142 2.71 137 2.71 139 2.71 136 2.71
                           134 2.71
 136  0.750  0.000  0.317- 180 2.60 124 2.60 122 2.60 137 2.71 192 2.71 189 2.71 134 2.71 191 2.71
                           135 2.71
 137  0.833  0.083  0.317- 125 2.60 124 2.60 126 2.60 192 2.71 136 2.71  37 2.71 135 2.71 138 2.71
                           142 2.71
 138  0.917  0.167  0.317- 126 2.60 131 2.60  25 2.60 143 2.71  43 2.71 142 2.71  38 2.71 137 2.71
                            37 2.71
 139  0.500  0.250  0.317-  35 2.60 127 2.60 123 2.60  42 2.71  47 2.71 140 2.71 135 2.71  48 2.71
                           134 2.71
 140  0.583  0.333  0.317- 205 1.94 128 2.60 129 2.60 127 2.60 135 2.71 142 2.71 141 2.71 139 2.71
                           181 2.71  48 2.71
 141  0.667  0.417  0.317- 201 1.59 170 2.60 129 2.60 130 2.60 222 2.68 182 2.71 184 2.71 181 2.71
                           143 2.71 140 2.71 142 2.71
 142  0.750  0.250  0.317- 130 2.60 126 2.60 128 2.60 135 2.71 140 2.71 143 2.71 138 2.71 141 2.71
                           137 2.71
 143  0.833  0.333  0.317- 130 2.60 131 2.60 132 2.60 138 2.71  43 2.71 142 2.71 141 2.71 184 2.71
                           144 2.71
 144  0.917  0.417  0.317- 173 2.60  31 2.60 132 2.60 185 2.71  85 2.71  44 2.71 184 2.71  43 2.71
                           143 2.71
 145  0.500  0.583  0.000- 157 2.65  66 2.65 158 2.65 105 2.71  53 2.71  54 2.71 146 2.71  59 2.71
                           147 2.71
 146  0.667  0.500  0.000- 160 2.65 117 2.65 158 2.65 108 2.71 148 2.71 105 2.71 145 2.71 147 2.71
                           106 2.71
 147  0.583  0.667  0.000- 159 2.65 163 2.65 158 2.65 151 2.71 152 2.71 148 2.71  59 2.71 146 2.71
                           145 2.71
 148  0.750  0.583  0.000- 160 2.65 161 2.65 159 2.65 108 2.71 146 2.71 147 2.71 149 2.71 152 2.71
                           150 2.71
 149  0.917  0.500  0.000-  61 2.65 120 2.65 161 2.65  49 2.71   9 2.71 148 2.71 108 2.71 150 2.71
                             7 2.71
 150  0.833  0.667  0.000- 162 2.65 166 2.65 161 2.65 154 2.71 155 2.71  49 2.71 152 2.71 149 2.71
                           148 2.71
 151  0.500  0.833  0.000- 164 2.65 163 2.65  72 2.65 147 2.71 152 2.71 153 2.71  59 2.71   5 2.71
                            60 2.71
 152  0.667  0.750  0.000- 159 2.65 164 2.65 166 2.65 147 2.71 151 2.71 154 2.71 150 2.71 148 2.71
                           153 2.71
 153  0.583  0.917  0.000- 109 2.65 165 2.65 164 2.65  97 2.71   5 2.71 151 2.71  98 2.71 152 2.71
                           154 2.71
 154  0.750  0.833  0.000- 167 2.65 166 2.65 165 2.65 150 2.71 155 2.71 156 2.71 152 2.71  98 2.71
                           153 2.71
 155  0.917  0.750  0.000-  67 2.65 162 2.65 167 2.65  55 2.71  51 2.71 150 2.71 154 2.71  49 2.71
                           156 2.71
 156  0.833  0.917  0.000- 112 2.65 168 2.65 167 2.65 100 2.71  98 2.71  55 2.71 154 2.71 101 2.71
                           155 2.71
 157  0.500  0.500  0.107- 169 2.64 129 2.64  77 2.64 145 2.65 105 2.65  53 2.65 158 2.71 117 2.71
                            24 2.71  65 2.71 116 2.71  66 2.71
 158  0.583  0.583  0.107- 170 2.64 169 2.64 171 2.64 146 2.65 145 2.65 147 2.65 117 2.71 157 2.71
                           160 2.71  66 2.71 159 2.71 163 2.71
 159  0.667  0.667  0.107- 171 2.64 176 2.64 172 2.64 147 2.65 152 2.65 148 2.65 164 2.71 163 2.71
                           158 2.71 166 2.71 160 2.71 161 2.71
 160  0.750  0.500  0.107- 170 2.64 132 2.64 172 2.64 146 2.65 108 2.65 148 2.65 117 2.71 158 2.71
                           161 2.71 120 2.71 159 2.71 119 2.71
 161  0.833  0.583  0.107- 173 2.64 172 2.64 174 2.64 149 2.65 148 2.65 150 2.65 120 2.71  61 2.71
                           162 2.71 160 2.71 166 2.71 159 2.71
 162  0.917  0.667  0.107- 174 2.64 179 2.64  73 2.64 150 2.65 155 2.65  49 2.65 167 2.71  67 2.71
                           166 2.71  62 2.71 161 2.71  61 2.71
 163  0.500  0.750  0.107- 175 2.64 171 2.64  83 2.64 151 2.65 147 2.65  59 2.65  66 2.71 164 2.71
                           159 2.71  71 2.71  72 2.71 158 2.71
 164  0.583  0.833  0.107- 175 2.64 176 2.64 177 2.64 151 2.65 152 2.65 153 2.65 159 2.71 163 2.71
                            72 2.71 166 2.71 109 2.71 165 2.71
 165  0.667  0.917  0.107- 122 2.64 177 2.64 178 2.64  98 2.65 153 2.65 154 2.65 110 2.71 109 2.71
                           167 2.71 112 2.71 166 2.71 164 2.71
 166  0.750  0.750  0.107- 178 2.64 174 2.64 176 2.64 154 2.65 150 2.65 152 2.65 167 2.71 162 2.71
                           159 2.71 164 2.71 161 2.71 165 2.71
 167  0.833  0.833  0.107- 178 2.64 179 2.64 180 2.64 154 2.65 155 2.65 156 2.65 162 2.71  67 2.71
                           166 2.71 165 2.71 112 2.71 168 2.71
 168  0.917  0.917  0.107- 125 2.64  79 2.64 180 2.64 101 2.65  55 2.65 156 2.65 113 2.71 112 2.71
                            13 2.71  68 2.71  67 2.71 167 2.71
 169  0.500  0.583  0.214- 181 2.60  90 2.60 182 2.60 157 2.64  66 2.64 158 2.64 129 2.71  77 2.71
                            78 2.71 170 2.71  83 2.71 171 2.71
 170  0.667  0.500  0.214- 184 2.60 141 2.60 182 2.60 160 2.64 117 2.64 158 2.64 132 2.71 172 2.71
                           129 2.71 169 2.71 171 2.71 130 2.71
 171  0.583  0.667  0.214- 183 2.60 187 2.60 182 2.60 159 2.64 163 2.64 158 2.64 175 2.71 176 2.71
                           172 2.71  83 2.71 170 2.71 169 2.71
 172  0.750  0.583  0.214- 184 2.60 185 2.60 183 2.60 160 2.64 161 2.64 159 2.64 132 2.71 170 2.71
                           171 2.71 173 2.71 176 2.71 174 2.71
 173  0.917  0.500  0.214-  85 2.60 144 2.60 185 2.60  61 2.64 120 2.64 161 2.64  73 2.71  33 2.71
                           172 2.71 132 2.71 174 2.71  31 2.71
 174  0.833  0.667  0.214- 186 2.60 190 2.60 185 2.60 162 2.64 166 2.64 161 2.64 178 2.71 179 2.71
                            73 2.71 176 2.71 173 2.71 172 2.71
 175  0.500  0.833  0.214- 188 2.60 187 2.60  96 2.60 164 2.64 163 2.64  72 2.64 171 2.71 176 2.71
                           177 2.71  83 2.71  29 2.71  84 2.71
 176  0.667  0.750  0.214- 183 2.60 188 2.60 190 2.60 159 2.64 164 2.64 166 2.64 171 2.71 175 2.71
                           178 2.71 174 2.71 172 2.71 177 2.71
 177  0.583  0.917  0.214- 133 2.60 189 2.60 188 2.60 109 2.64 165 2.64 164 2.64 121 2.71  29 2.71
                           175 2.71 122 2.71 176 2.71 178 2.71
 178  0.750  0.833  0.214- 191 2.60 190 2.60 189 2.60 167 2.64 166 2.64 165 2.64 174 2.71 179 2.71
                           180 2.71 176 2.71 122 2.71 177 2.71
 179  0.917  0.750  0.214-  91 2.60 186 2.60 191 2.60  67 2.64 162 2.64 167 2.64  79 2.71  75 2.71
                           174 2.71 178 2.71  73 2.71 180 2.71
 180  0.833  0.917  0.214- 136 2.60 192 2.60 191 2.60 112 2.64 168 2.64 167 2.64 124 2.71 122 2.71
                            79 2.71 178 2.71 125 2.71 179 2.71
 181  0.500  0.500  0.317- 202 1.69 205 2.04 223 2.32 224 2.43 169 2.60 129 2.60  77 2.60 182 2.71
                           141 2.71  48 2.71  89 2.71 140 2.71  90 2.71
 182  0.583  0.583  0.317- 198 1.47 221 2.26 222 2.58 170 2.60 169 2.60 171 2.60 141 2.71 181 2.71
                           184 2.71  90 2.71 183 2.71 187 2.71
 183  0.667  0.667  0.317- 194 1.37 219 2.32 171 2.60 176 2.60 172 2.60 188 2.71 187 2.71 182 2.71
                           190 2.71 184 2.71 185 2.71
 184  0.750  0.500  0.317- 197 1.38 220 2.37 170 2.60 132 2.60 172 2.60 141 2.71 182 2.71 185 2.71
                           144 2.71 183 2.71 143 2.71
 185  0.833  0.583  0.317- 173 2.60 172 2.60 174 2.60 144 2.71  85 2.71 186 2.71 184 2.71 190 2.71
                           183 2.71
 186  0.917  0.667  0.317- 174 2.60 179 2.60  73 2.60 191 2.71  91 2.71 190 2.71  86 2.71 185 2.71
                            85 2.71
 187  0.500  0.750  0.317- 175 2.60 171 2.60  83 2.60  90 2.71 188 2.71 183 2.71  95 2.71  96 2.71
                           182 2.71
 188  0.583  0.833  0.317- 175 2.60 176 2.60 177 2.60 183 2.71 187 2.71  96 2.71 190 2.71 133 2.71
                           189 2.71
 189  0.667  0.917  0.317- 122 2.60 177 2.60 178 2.60 134 2.71 133 2.71 191 2.71 136 2.71 190 2.71
                           188 2.71
 190  0.750  0.750  0.317- 178 2.60 174 2.60 176 2.60 191 2.71 186 2.71 183 2.71 188 2.71 189 2.71
                           185 2.71
 191  0.833  0.833  0.317- 178 2.60 179 2.60 180 2.60 186 2.71  91 2.71 190 2.71 189 2.71 136 2.71
                           192 2.71
 192  0.917  0.917  0.317- 125 2.60  79 2.60 180 2.60 137 2.71 136 2.71  37 2.71  92 2.71  91 2.71
                           191 2.71
 193  0.690  0.668  0.472- 219 1.09
 194  0.684  0.673  0.383- 219 1.09 183 1.37
 195  0.780  0.613  0.423- 219 1.09
 196  0.732  0.528  0.472- 220 1.10
 197  0.737  0.512  0.385- 220 1.10 184 1.38
 198  0.582  0.619  0.383- 221 1.10 182 1.47
 199  0.584  0.620  0.471- 221 1.10
 200  0.633  0.470  0.473- 222 1.10
 201  0.634  0.467  0.385- 222 1.10 141 1.59
 202  0.483  0.564  0.382- 223 1.10 181 1.69
 203  0.481  0.570  0.470- 223 1.10
 204  0.531  0.420  0.478- 224 1.10
 205  0.537  0.412  0.390- 224 1.10 140 1.94 181 2.04
 206  0.385  0.509  0.382- 225 1.10  89 1.80  48 2.00
 207  0.379  0.518  0.470- 225 1.10
 208  0.432  0.367  0.480- 226 1.10
 209  0.441  0.356  0.392- 226 1.10  48 1.80
 210  0.289  0.452  0.381- 227 1.10  88 1.52
 211  0.280  0.461  0.469- 227 1.10
 212  0.335  0.309  0.478- 228 1.10
 213  0.347  0.299  0.391- 228 1.10  47 1.57
 214  0.175  0.393  0.384- 229 1.10  45 1.39
 215  0.202  0.400  0.467- 229 1.10
 216  0.251  0.241  0.383- 230 1.09  46 1.32
 217  0.152  0.297  0.418- 230 1.09
 218  0.239  0.248  0.471- 230 1.09
 219  0.715  0.632  0.426- 195 1.09 194 1.09 193 1.09 220 1.52 183 2.32
 220  0.704  0.557  0.425- 196 1.10 197 1.10 219 1.52 221 1.53 184 2.37
 221  0.613  0.582  0.427- 198 1.10 199 1.10 220 1.53 222 1.53 182 2.26
 222  0.603  0.506  0.428- 200 1.10 201 1.10 221 1.53 223 1.53 182 2.58 141 2.68
 223  0.513  0.530  0.428- 202 1.10 203 1.10 224 1.53 222 1.53 181 2.32
 224  0.503  0.453  0.431- 204 1.10 205 1.10 223 1.53 225 1.53 181 2.43
 225  0.413  0.476  0.429- 206 1.10 207 1.10 226 1.53 224 1.53  48 2.48
 226  0.405  0.399  0.433- 208 1.10 209 1.10 227 1.53 225 1.53  48 2.36
 227  0.316  0.419  0.428- 210 1.10 211 1.10 226 1.53 228 1.53  88 2.62  47 2.66
 228  0.310  0.341  0.431- 212 1.10 213 1.10 229 1.53 227 1.53  47 2.30
 229  0.221  0.360  0.423- 214 1.10 215 1.10 230 1.52 228 1.53  45 2.36
 230  0.215  0.282  0.424- 217 1.09 218 1.09 216 1.09 229 1.52  46 2.23
 
  LATTYP: Found a hexagonal cell.
 ALAT       =    18.7899500611
 C/A-ratio  =     1.0643987842
  
  Lattice vectors:
  
 A1 = (   9.3949750305, -16.2725740888,   0.0000000000)
 A2 = ( -18.7899500611,   0.0000000000,   0.0000000000)
 A3 = (   0.0000000000,   0.0000000000, -20.0000000000)


Analysis of symmetry for initial positions (statically):
=====================================================================
 Subroutine PRICEL returns:
 Original cell was already a primitive cell.
 

 Routine SETGRP: Setting up the symmetry group for a 
 hexagonal supercell.


 Subroutine GETGRP returns: Found  1 space group operations
 (whereof  1 operations were pure point group operations)
 out of a pool of 24 trial point group operations.


The static configuration has the point symmetry C_1 .


Analysis of symmetry for dynamics (positions and initial velocities):
=====================================================================
 Subroutine PRICEL returns:
 Original cell was already a primitive cell.
 

 Routine SETGRP: Setting up the symmetry group for a 
 hexagonal supercell.


 Subroutine GETGRP returns: Found  1 space group operations
 (whereof  1 operations were pure point group operations)
 out of a pool of 24 trial point group operations.


The dynamic configuration has the point symmetry C_1 .


Analysis of constrained symmetry for selective dynamics:
=====================================================================
 Subroutine PRICEL returns:
 Original cell was already a primitive cell.
 

 Routine SETGRP: Setting up the symmetry group for a 
 hexagonal supercell.


 Subroutine GETGRP returns: Found  1 space group operations
 (whereof  1 operations were pure point group operations)
 out of a pool of 24 trial point group operations.


The constrained configuration has the point symmetry C_1 .


 Subroutine INISYM returns: Found  1 space group operations
 (whereof  1 operations are pure point group operations),
 and found     1 'primitive' translations

 
 
 KPOINTS: K-POINTS                                

Automatic generation of k-mesh.
Space group operators:
 irot       det(A)        alpha          n_x          n_y          n_z        tau_x        tau_y        tau_z
    1     1.000000     0.000000     1.000000     0.000000     0.000000     0.000000     0.000000     0.000000
 
 Subroutine IBZKPT returns following result:
 ===========================================
 
 Found      5 irreducible k-points:
 
 Following reciprocal coordinates:
            Coordinates               Weight
  0.000000  0.000000  0.000000      1.000000
  0.333333  0.000000  0.000000      2.000000
  0.000000  0.333333  0.000000      2.000000
  0.333333  0.333333  0.000000      2.000000
 -0.333333  0.333333  0.000000      2.000000
 
 Following cartesian coordinates:
            Coordinates               Weight
  0.000000  0.000000  0.000000      1.000000
  0.017740 -0.010242  0.000000      2.000000
  0.000000  0.020484  0.000000      2.000000
  0.017740  0.010242  0.000000      2.000000
 -0.017740  0.030727  0.000000      2.000000
 


--------------------------------------------------------------------------------------------------------




 Dimension of arrays:
   k-points           NKPTS =      5   k-points in BZ     NKDIM =      5   number of bands    NBANDS=   1008
   number of dos      NEDOS =    301   number of ions     NIONS =    230
   non local maximal  LDIM  =      6   non local SUM 2l+1 LMDIM =     18
   total plane-waves  NPLWV = ******
   max r-space proj   IRMAX =   2490   max aug-charges    IRDMAX=  11670
   dimension x,y,z NGX =    98 NGY =   98 NGZ =  108
   dimension x,y,z NGXF=   196 NGYF=  196 NGZF=  216
   support grid    NGXF=   196 NGYF=  196 NGZF=  216
   ions per type =             192  26  12
   NGX,Y,Z   is equivalent  to a cutoff of   8.67,  8.67,  8.98 a.u.
   NGXF,Y,Z  is equivalent  to a cutoff of  17.34, 17.34, 17.95 a.u.

 SYSTEM =  x                                       
 POSCAR =  Ru  H  C                                

 Startparameter for this run:
   NWRITE =      0    write-flag & timer
   PREC   = normal    normal or accurate (medium, high low for compatibility)
   ISTART =      0    job   : 0-new  1-cont  2-samecut
   ICHARG =      2    charge: 1-file 2-atom 10-const
   ISPIN  =      1    spin polarized calculation?
   LNONCOLLINEAR =      F non collinear calculations
   LSORBIT =      F    spin-orbit coupling
   INIWAV =      1    electr: 0-lowe 1-rand  2-diag
   LASPH  =      F    aspherical Exc in radial PAW
   METAGGA=      F    non-selfconsistent MetaGGA calc.

 Electronic Relaxation 1
   ENCUT  =  450.0 eV  33.07 Ry    5.75 a.u.  32.50 32.50 34.59*2*pi/ulx,y,z
   ENINI  =  450.0     initial cutoff
   ENAUG  =  644.9 eV  augmentation charge cutoff
   NELM   =     50;   NELMIN=  5; NELMDL= -7     # of ELM steps 
   EDIFF  = 0.1E-04   stopping-criterion for ELM
   LREAL  =      T    real-space projection
   NLSPLINE    = F    spline interpolate recip. space projectors
   LCOMPAT=      F    compatible to vasp.4.4
   GGA_COMPAT  = T    GGA compatible to vasp.4.4-vasp.4.6
   LMAXPAW     = -100 max onsite density
   LMAXMIX     =    2 max onsite mixed and CHGCAR
   VOSKOWN=      0    Vosko Wilk Nusair interpolation
   ROPT   =   -0.00050  -0.00050  -0.00050
 Ionic relaxation
   EDIFFG = -.2E-01   stopping-criterion for IOM
   NSW    =    400    number of steps for IOM
   NBLOCK =      1;   KBLOCK =    400    inner block; outer block 
   IBRION =      2    ionic relax: 0-MD 1-quasi-New 2-CG
   NFREE  =      2    steps in history (QN), initial steepest desc. (CG)
   ISIF   =      2    stress and relaxation
   IWAVPR =     11    prediction:  0-non 1-charg 2-wave 3-comb
   ISYM   =      2    0-nonsym 1-usesym 2-fastsym
   LCORR  =      T    Harris-Foulkes like correction to forces

   POTIM  = 0.1500    time-step for ionic-motion
   TEIN   =    0.0    initial temperature
   TEBEG  =    0.0;   TEEND  =   0.0 temperature during run
   SMASS  =  -3.00    Nose mass-parameter (am)
   estimated Nose-frequenzy (Omega)   =  0.10E-29 period in steps =****** mass=  -0.807E-26a.u.
   SCALEE = 1.0000    scale energy and forces
   NPACO  =    256;   APACO  = 16.0  distance and # of slots for P.C.
   PSTRESS=    0.0 pullay stress

  Mass of Ions in am
   POMASS = 101.07  1.00 12.01
  Ionic Valenz
   ZVAL   =   8.00  1.00  4.00
  Atomic Wigner-Seitz radii
   RWIGS  =  -1.00 -1.00 -1.00
  virtual crystal weights 
   VCA    =   1.00  1.00  1.00
   NELECT =    1610.0000    total number of electrons
   NUPDOWN=      -1.0000    fix difference up-down

 DOS related values:
   EMIN   =  10.00;   EMAX   =-10.00  energy-range for DOS
   EFERMI =   0.00
   ISMEAR =     0;   SIGMA  =   0.03  broadening in eV -4-tet -1-fermi 0-gaus

 Electronic relaxation 2 (details)
   IALGO  =     68    algorithm
   LDIAG  =      T    sub-space diagonalisation (order eigenvalues)
   LSUBROT=      F    optimize rotation matrix (better conditioning)
   TURBO    =      0    0=normal 1=particle mesh
   IRESTART =      0    0=no restart 2=restart with 2 vectors
   NREBOOT  =      0    no. of reboots
   NMIN     =      0    reboot dimension
   EREF     =   0.00    reference energy to select bands
   IMIX   =      4    mixing-type and parameters
     AMIX     =   0.40;   BMIX     =  1.00
     AMIX_MAG =   1.60;   BMIX_MAG =  1.00
     AMIN     =   0.10
     WC   =   100.;   INIMIX=   1;  MIXPRE=   1;  MAXMIX= -45

 Intra band minimization:
   WEIMIN = 0.0010     energy-eigenvalue tresh-hold
   EBREAK =  0.25E-08  absolut break condition
   DEPER  =   0.30     relativ break condition  

   TIME   =   0.40     timestep for ELM

  volume/ion in A,a.u.               =      26.59       179.42
  Fermi-wavevector in a.u.,A,eV,Ry     =   1.049251  1.982797 14.979037  1.100928
  Thomas-Fermi vector in A             =   2.184206
 
 Write flags
   LWAVE        =      F    write WAVECAR
   LDOWNSAMPLE  =      F    k-point downsampling of WAVECAR
   LCHARG       =      F    write CHGCAR
   LVTOT        =      F    write LOCPOT, total local potential
   LVHAR        =      F    write LOCPOT, Hartree potential only
   LELF         =      F    write electronic localiz. function (ELF)
   LORBIT       =      0    0 simple, 1 ext, 2 COOP (PROOUT), +10 PAW based schemes


 Dipole corrections
   LMONO  =      F    monopole corrections only (constant potential shift)
   LDIPOL =      T    correct potential (dipole corrections)
   IDIPOL =      3    1-x, 2-y, 3-z, 4-all directions 
   EPSILON=  1.0000000 bulk dielectric constant

 Exchange correlation treatment:
   GGA     =    PE    GGA type
   LEXCH   =     8    internal setting for exchange type
   VOSKOWN=      0    Vosko Wilk Nusair interpolation
   LHFCALC =     F    Hartree Fock is set to
   LHFONE  =     F    Hartree Fock one center treatment
   AEXX    =    0.0000 exact exchange contribution

 Linear response parameters
   LEPSILON=     F    determine dielectric tensor
   LRPA    =     F    only Hartree local field effects (RPA)
   LNABLA  =     F    use nabla operator in PAW spheres
   LVEL    =     F    velocity operator in full k-point grid
   LINTERFAST=   F  fast interpolation
   KINTER  =     0    interpolate to denser k-point grid
   CSHIFT  =0.1000    complex shift for real part using Kramers Kronig
   OMEGAMAX=  -1.0    maximum frequency
   DEG_THRESHOLD= 0.2000000E-02 threshold for treating states as degnerate
   RTIME   =   -0.100 relaxation time in fs
  (WPLASMAI=    0.000 imaginary part of plasma frequency in eV, 0.658/RTIME)
   DFIELD  = 0.0000000 0.0000000 0.0000000 field for delta impulse in time
 
 Orbital magnetization related:
   ORBITALMAG=     F  switch on orbital magnetization
   LCHIMAG   =     F  perturbation theory with respect to B field
   DQ        =  0.001000  dq finite difference perturbation B field
   LLRAUG    =     F  two centre corrections for induced B field



--------------------------------------------------------------------------------------------------------


 conjugate gradient relaxation of ions
   using selective dynamics as specified on POSCAR
   WARNING: If single coordinates had been selected the selection of coordinates
            is made according to the corresponding   d i r e c t   coordinates!
            Don't support selection of single cartesian coordinates -- sorry ...
  !
 charge density and potential will be updated during run
 non-spin polarized calculation
 RMM-DIIS sequential band-by-band and
  variant of blocked Davidson during initial phase
 perform sub-space diagonalisation
    before iterative eigenvector-optimisation
 modified Broyden-mixing scheme, WC =      100.0
 initial mixing is a Kerker type mixing with AMIX =  0.4000 and BMIX =      1.0000
 Hartree-type preconditioning will be used
 using additional bands          203
 real space projection scheme for non local part
 use partial core corrections
 calculate Harris-corrections to forces 
   (improved forces if not selfconsistent)
 use gradient corrections 
 use of overlap-Matrix (Vanderbilt PP)
 Gauss-broadening in eV      SIGMA  =   0.03


--------------------------------------------------------------------------------------------------------


  energy-cutoff  :      450.00
  volume of cell :     6115.22
      direct lattice vectors                 reciprocal lattice vectors
    18.789950061  0.000000000  0.000000000     0.053219939 -0.030726546  0.000000000
     9.394975031 16.272574089  0.000000000     0.000000000  0.061453092  0.000000000
     0.000000000  0.000000000 20.000000000     0.000000000  0.000000000  0.050000000

  length of vectors
    18.789950061 18.789950061 20.000000000     0.061453092  0.061453092  0.050000000


 
 k-points in units of 2pi/SCALE and weight: K-POINTS                                
   0.00000000  0.00000000  0.00000000       0.111
   0.01773998 -0.01024218  0.00000000       0.222
   0.00000000  0.02048436  0.00000000       0.222
   0.01773998  0.01024218  0.00000000       0.222
  -0.01773998  0.03072655  0.00000000       0.222
 
 k-points in reciprocal lattice and weights: K-POINTS                                
   0.00000000  0.00000000  0.00000000       0.111
   0.33333333  0.00000000  0.00000000       0.222
   0.00000000  0.33333333  0.00000000       0.222
   0.33333333  0.33333333  0.00000000       0.222
  -0.33333333  0.33333333  0.00000000       0.222
 
 position of ions in fractional coordinates (direct lattice) 
   0.00000000  0.08333333  0.00000000
   0.16666667  0.00000000  0.00000000
   0.08333333  0.16666667  0.00000000
   0.25000000  0.08333333  0.00000000
   0.41666667  0.00000000  0.00000000
   0.33333333  0.16666667  0.00000000
   1.00000000  0.33333333  0.00000000
   0.16666667  0.25000000  0.00000000
   0.08333333  0.41666667  0.00000000
   0.25000000  0.33333333  0.00000000
   0.41666667  0.25000000  0.00000000
   0.33333333  0.41666667  0.00000000
   0.00000000  0.00000000  0.10719781
   0.08333333  0.08333333  0.10719781
   0.16666667  0.16666667  0.10719781
   0.25000000  0.00000000  0.10719781
   0.33333333  0.08333333  0.10719781
   0.41666667  0.16666667  0.10719781
   1.00000000  0.25000000  0.10719781
   0.08333333  0.33333333  0.10719781
   0.16666667  0.41666667  0.10719781
   0.25000000  0.25000000  0.10719781
   0.33333333  0.33333333  0.10719781
   0.41666667  0.41666667  0.10719781
   0.00000000  0.08333333  0.21360258
   0.16666667  0.00000000  0.21360258
   0.08333333  0.16666667  0.21360258
   0.25000000  0.08333333  0.21360258
   0.41666667  0.00000000  0.21360258
   0.33333333  0.16666667  0.21360258
   1.00000000  0.33333333  0.21360258
   0.16666667  0.25000000  0.21360258
   0.08333333  0.41666667  0.21360258
   0.25000000  0.33333333  0.21360258
   0.41666667  0.25000000  0.21360258
   0.33333333  0.41666667  0.21360258
   0.00000000  0.00000000  0.31707091
   0.08333333  0.08333333  0.31707091
   0.16666667  0.16666667  0.31707091
   0.25000000  0.00000000  0.31707091
   0.33333333  0.08333333  0.31707091
   0.41666667  0.16666667  0.31707091
   1.00000000  0.25000000  0.31707091
   0.08333333  0.33333333  0.31707091
   0.16666667  0.41666667  0.31707091
   0.25000000  0.25000000  0.31707091
   0.33333333  0.33333333  0.31707091
   0.41666667  0.41666667  0.31707091
   0.00000000  0.58333333  0.00000000
   0.16666667  0.50000000  0.00000000
   0.08333333  0.66666667  0.00000000
   0.25000000  0.58333333  0.00000000
   0.41666667  0.50000000  0.00000000
   0.33333333  0.66666667  0.00000000
   1.00000000  0.83333333  0.00000000
   0.16666667  0.75000000  0.00000000
   0.08333333  0.91666667  0.00000000
   0.25000000  0.83333333  0.00000000
   0.41666667  0.75000000  0.00000000
   0.33333333  0.91666667  0.00000000
   0.00000000  0.50000000  0.10719781
   0.08333333  0.58333333  0.10719781
   0.16666667  0.66666667  0.10719781
   0.25000000  0.50000000  0.10719781
   0.33333333  0.58333333  0.10719781
   0.41666667  0.66666667  0.10719781
   1.00000000  0.75000000  0.10719781
   0.08333333  0.83333333  0.10719781
   0.16666667  0.91666667  0.10719781
   0.25000000  0.75000000  0.10719781
   0.33333333  0.83333333  0.10719781
   0.41666667  0.91666667  0.10719781
   0.00000000  0.58333333  0.21360258
   0.16666667  0.50000000  0.21360258
   0.08333333  0.66666667  0.21360258
   0.25000000  0.58333333  0.21360258
   0.41666667  0.50000000  0.21360258
   0.33333333  0.66666667  0.21360258
   1.00000000  0.83333333  0.21360258
   0.16666667  0.75000000  0.21360258
   0.08333333  0.91666667  0.21360258
   0.25000000  0.83333333  0.21360258
   0.41666667  0.75000000  0.21360258
   0.33333333  0.91666667  0.21360258
   0.00000000  0.50000000  0.31707091
   0.08333333  0.58333333  0.31707091
   0.16666667  0.66666667  0.31707091
   0.25000000  0.50000000  0.31707091
   0.33333333  0.58333333  0.31707091
   0.41666667  0.66666667  0.31707091
   1.00000000  0.75000000  0.31707091
   0.08333333  0.83333333  0.31707091
   0.16666667  0.91666667  0.31707091
   0.25000000  0.75000000  0.31707091
   0.33333333  0.83333333  0.31707091
   0.41666667  0.91666667  0.31707091
   0.50000000  0.08333333  0.00000000
   0.66666667  0.00000000  0.00000000
   0.58333333  0.16666667  0.00000000
   0.75000000  0.08333333  0.00000000
   0.91666667  0.00000000  0.00000000
   0.83333333  0.16666667  0.00000000
   0.50000000  0.33333333  0.00000000
   0.66666667  0.25000000  0.00000000
   0.58333333  0.41666667  0.00000000
   0.75000000  0.33333333  0.00000000
   0.91666667  0.25000000  0.00000000
   0.83333333  0.41666667  0.00000000
   0.50000000  0.00000000  0.10719781
   0.58333333  0.08333333  0.10719781
   0.66666667  0.16666667  0.10719781
   0.75000000  0.00000000  0.10719781
   0.83333333  0.08333333  0.10719781
   0.91666667  0.16666667  0.10719781
   0.50000000  0.25000000  0.10719781
   0.58333333  0.33333333  0.10719781
   0.66666667  0.41666667  0.10719781
   0.75000000  0.25000000  0.10719781
   0.83333333  0.33333333  0.10719781
   0.91666667  0.41666667  0.10719781
   0.50000000  0.08333333  0.21360258
   0.66666667  0.00000000  0.21360258
   0.58333333  0.16666667  0.21360258
   0.75000000  0.08333333  0.21360258
   0.91666667  0.00000000  0.21360258
   0.83333333  0.16666667  0.21360258
   0.50000000  0.33333333  0.21360258
   0.66666667  0.25000000  0.21360258
   0.58333333  0.41666667  0.21360258
   0.75000000  0.33333333  0.21360258
   0.91666667  0.25000000  0.21360258
   0.83333333  0.41666667  0.21360258
   0.50000000  0.00000000  0.31707091
   0.58333333  0.08333333  0.31707091
   0.66666667  0.16666667  0.31707091
   0.75000000  0.00000000  0.31707091
   0.83333333  0.08333333  0.31707091
   0.91666667  0.16666667  0.31707091
   0.50000000  0.25000000  0.31707091
   0.58333333  0.33333333  0.31707091
   0.66666667  0.41666667  0.31707091
   0.75000000  0.25000000  0.31707091
   0.83333333  0.33333333  0.31707091
   0.91666667  0.41666667  0.31707091
   0.50000000  0.58333333  0.00000000
   0.66666667  0.50000000  0.00000000
   0.58333333  0.66666667  0.00000000
   0.75000000  0.58333333  0.00000000
   0.91666667  0.50000000  0.00000000
   0.83333333  0.66666667  0.00000000
   0.50000000  0.83333333  0.00000000
   0.66666667  0.75000000  0.00000000
   0.58333333  0.91666667  0.00000000
   0.75000000  0.83333333  0.00000000
   0.91666667  0.75000000  0.00000000
   0.83333333  0.91666667  0.00000000
   0.50000000  0.50000000  0.10719781
   0.58333333  0.58333333  0.10719781
   0.66666667  0.66666667  0.10719781
   0.75000000  0.50000000  0.10719781
   0.83333333  0.58333333  0.10719781
   0.91666667  0.66666667  0.10719781
   0.50000000  0.75000000  0.10719781
   0.58333333  0.83333333  0.10719781
   0.66666667  0.91666667  0.10719781
   0.75000000  0.75000000  0.10719781
   0.83333333  0.83333333  0.10719781
   0.91666667  0.91666667  0.10719781
   0.50000000  0.58333333  0.21360258
   0.66666667  0.50000000  0.21360258
   0.58333333  0.66666667  0.21360258
   0.75000000  0.58333333  0.21360258
   0.91666667  0.50000000  0.21360258
   0.83333333  0.66666667  0.21360258
   0.50000000  0.83333333  0.21360258
   0.66666667  0.75000000  0.21360258
   0.58333333  0.91666667  0.21360258
   0.75000000  0.83333333  0.21360258
   0.91666667  0.75000000  0.21360258
   0.83333333  0.91666667  0.21360258
   0.50000000  0.50000000  0.31707091
   0.58333333  0.58333333  0.31707091
   0.66666667  0.66666667  0.31707091
   0.75000000  0.50000000  0.31707091
   0.83333333  0.58333333  0.31707091
   0.91666667  0.66666667  0.31707091
   0.50000000  0.75000000  0.31707091
   0.58333333  0.83333333  0.31707091
   0.66666667  0.91666667  0.31707091
   0.75000000  0.75000000  0.31707091
   0.83333333  0.83333333  0.31707091
   0.91666667  0.91666667  0.31707091
   0.68953917  0.66790493  0.47157562
   0.68391345  0.67260309  0.38296812
   0.78012679  0.61349908  0.42318312
   0.73152248  0.52792609  0.47249377
   0.73738137  0.51236363  0.38519018
   0.58185338  0.61939905  0.38271062
   0.58408995  0.61965599  0.47093912
   0.63298838  0.46964027  0.47295862
   0.63430268  0.46686741  0.38475612
   0.48327426  0.56427192  0.38177712
   0.48063969  0.57031095  0.46991912
   0.53115407  0.42000022  0.47766512
   0.53676940  0.41204954  0.38969462
   0.38528451  0.50867534  0.38181962
   0.37903924  0.51751147  0.46979612
   0.43155560  0.36692406  0.48013212
   0.44103753  0.35633222  0.39242212
   0.28910739  0.45183288  0.38068762
   0.27983195  0.46063654  0.46855862
   0.33477420  0.30942199  0.47815712
   0.34713424  0.29910873  0.39060062
   0.17529812  0.39317340  0.38397538
   0.20245692  0.40047402  0.46714856
   0.25088682  0.24139027  0.38262912
   0.15156460  0.29688108  0.41849712
   0.23930629  0.24847636  0.47083662
   0.71484059  0.63237570  0.42563812
   0.70407135  0.55740394  0.42468162
   0.61333737  0.58177606  0.42662012
   0.60316291  0.50597768  0.42808762
   0.51250312  0.52973722  0.42750212
   0.50322351  0.45349100  0.43124962
   0.41302518  0.47583857  0.42850462
   0.40522365  0.39874618  0.43279112
   0.31572718  0.41925618  0.42769562
   0.30957249  0.34114020  0.43056712
   0.22079773  0.36021967  0.42323462
   0.21549349  0.28207033  0.42387862
 
 position of ions in cartesian coordinates  (Angst):
   0.78291459  1.35604784  0.00000000
   3.13165834  0.00000000  0.00000000
   3.13165834  2.71209568  0.00000000
   5.48040210  1.35604784  0.00000000
   7.82914586  0.00000000  0.00000000
   7.82914586  2.71209568  0.00000000
  21.92160840  5.42419136  0.00000000
   5.48040210  4.06814352  0.00000000
   5.48040210  6.78023920  0.00000000
   7.82914586  5.42419136  0.00000000
  10.17788962  4.06814352  0.00000000
  10.17788962  6.78023920  0.00000000
   0.00000000  0.00000000  2.14395612
   2.34874376  1.35604784  2.14395612
   4.69748752  2.71209568  2.14395612
   4.69748752  0.00000000  2.14395612
   7.04623127  1.35604784  2.14395612
   9.39497503  2.71209568  2.14395612
  21.13869382  4.06814352  2.14395612
   4.69748752  5.42419136  2.14395612
   7.04623127  6.78023920  2.14395612
   7.04623127  4.06814352  2.14395612
   9.39497503  5.42419136  2.14395612
  11.74371879  6.78023920  2.14395612
   0.78291459  1.35604784  4.27205164
   3.13165834  0.00000000  4.27205164
   3.13165834  2.71209568  4.27205164
   5.48040210  1.35604784  4.27205164
   7.82914586  0.00000000  4.27205164
   7.82914586  2.71209568  4.27205164
  21.92160840  5.42419136  4.27205164
   5.48040210  4.06814352  4.27205164
   5.48040210  6.78023920  4.27205164
   7.82914586  5.42419136  4.27205164
  10.17788962  4.06814352  4.27205164
  10.17788962  6.78023920  4.27205164
   0.00000000  0.00000000  6.34141822
   2.34874376  1.35604784  6.34141822
   4.69748752  2.71209568  6.34141822
   4.69748752  0.00000000  6.34141822
   7.04623127  1.35604784  6.34141822
   9.39497503  2.71209568  6.34141822
  21.13869382  4.06814352  6.34141822
   4.69748752  5.42419136  6.34141822
   7.04623127  6.78023920  6.34141822
   7.04623127  4.06814352  6.34141822
   9.39497503  5.42419136  6.34141822
  11.74371879  6.78023920  6.34141822
   5.48040210  9.49233489  0.00000000
   7.82914586  8.13628704  0.00000000
   7.82914586 10.84838273  0.00000000
  10.17788962  9.49233489  0.00000000
  12.52663337  8.13628704  0.00000000
  12.52663337 10.84838273  0.00000000
  26.61909592 13.56047841  0.00000000
  10.17788962 12.20443057  0.00000000
  10.17788962 14.91652625  0.00000000
  12.52663337 13.56047841  0.00000000
  14.87537713 12.20443057  0.00000000
  14.87537713 14.91652625  0.00000000
   4.69748752  8.13628704  2.14395612
   7.04623127  9.49233489  2.14395612
   9.39497503 10.84838273  2.14395612
   9.39497503  8.13628704  2.14395612
  11.74371879  9.49233489  2.14395612
  14.09246255 10.84838273  2.14395612
  25.83618133 12.20443057  2.14395612
   9.39497503 13.56047841  2.14395612
  11.74371879 14.91652625  2.14395612
  11.74371879 12.20443057  2.14395612
  14.09246255 13.56047841  2.14395612
  16.44120630 14.91652625  2.14395612
   5.48040210  9.49233489  4.27205164
   7.82914586  8.13628704  4.27205164
   7.82914586 10.84838273  4.27205164
  10.17788962  9.49233489  4.27205164
  12.52663337  8.13628704  4.27205164
  12.52663337 10.84838273  4.27205164
  26.61909592 13.56047841  4.27205164
  10.17788962 12.20443057  4.27205164
  10.17788962 14.91652625  4.27205164
  12.52663337 13.56047841  4.27205164
  14.87537713 12.20443057  4.27205164
  14.87537713 14.91652625  4.27205164
   4.69748752  8.13628704  6.34141822
   7.04623127  9.49233489  6.34141822
   9.39497503 10.84838273  6.34141822
   9.39497503  8.13628704  6.34141822
  11.74371879  9.49233489  6.34141822
  14.09246255 10.84838273  6.34141822
  25.83618133 12.20443057  6.34141822
   9.39497503 13.56047841  6.34141822
  11.74371879 14.91652625  6.34141822
  11.74371879 12.20443057  6.34141822
  14.09246255 13.56047841  6.34141822
  16.44120630 14.91652625  6.34141822
  10.17788962  1.35604784  0.00000000
  12.52663337  0.00000000  0.00000000
  12.52663337  2.71209568  0.00000000
  14.87537713  1.35604784  0.00000000
  17.22412089  0.00000000  0.00000000
  17.22412089  2.71209568  0.00000000
  12.52663337  5.42419136  0.00000000
  14.87537713  4.06814352  0.00000000
  14.87537713  6.78023920  0.00000000
  17.22412089  5.42419136  0.00000000
  19.57286465  4.06814352  0.00000000
  19.57286465  6.78023920  0.00000000
   9.39497503  0.00000000  2.14395612
  11.74371879  1.35604784  2.14395612
  14.09246255  2.71209568  2.14395612
  14.09246255  0.00000000  2.14395612
  16.44120630  1.35604784  2.14395612
  18.78995006  2.71209568  2.14395612
  11.74371879  4.06814352  2.14395612
  14.09246255  5.42419136  2.14395612
  16.44120630  6.78023920  2.14395612
  16.44120630  4.06814352  2.14395612
  18.78995006  5.42419136  2.14395612
  21.13869382  6.78023920  2.14395612
  10.17788962  1.35604784  4.27205164
  12.52663337  0.00000000  4.27205164
  12.52663337  2.71209568  4.27205164
  14.87537713  1.35604784  4.27205164
  17.22412089  0.00000000  4.27205164
  17.22412089  2.71209568  4.27205164
  12.52663337  5.42419136  4.27205164
  14.87537713  4.06814352  4.27205164
  14.87537713  6.78023920  4.27205164
  17.22412089  5.42419136  4.27205164
  19.57286465  4.06814352  4.27205164
  19.57286465  6.78023920  4.27205164
   9.39497503  0.00000000  6.34141822
  11.74371879  1.35604784  6.34141822
  14.09246255  2.71209568  6.34141822
  14.09246255  0.00000000  6.34141822
  16.44120630  1.35604784  6.34141822
  18.78995006  2.71209568  6.34141822
  11.74371879  4.06814352  6.34141822
  14.09246255  5.42419136  6.34141822
  16.44120630  6.78023920  6.34141822
  16.44120630  4.06814352  6.34141822
  18.78995006  5.42419136  6.34141822
  21.13869382  6.78023920  6.34141822
  14.87537713  9.49233489  0.00000000
  17.22412089  8.13628704  0.00000000
  17.22412089 10.84838273  0.00000000
  19.57286465  9.49233489  0.00000000
  21.92160840  8.13628704  0.00000000
  21.92160840 10.84838273  0.00000000
  17.22412089 13.56047841  0.00000000
  19.57286465 12.20443057  0.00000000
  19.57286465 14.91652625  0.00000000
  21.92160840 13.56047841  0.00000000
  24.27035216 12.20443057  0.00000000
  24.27035216 14.91652625  0.00000000
  14.09246255  8.13628704  2.14395612
  16.44120630  9.49233489  2.14395612
  18.78995006 10.84838273  2.14395612
  18.78995006  8.13628704  2.14395612
  21.13869382  9.49233489  2.14395612
  23.48743758 10.84838273  2.14395612
  16.44120630 12.20443057  2.14395612
  18.78995006 13.56047841  2.14395612
  21.13869382 14.91652625  2.14395612
  21.13869382 12.20443057  2.14395612
  23.48743758 13.56047841  2.14395612
  25.83618133 14.91652625  2.14395612
  14.87537713  9.49233489  4.27205164
  17.22412089  8.13628704  4.27205164
  17.22412089 10.84838273  4.27205164
  19.57286465  9.49233489  4.27205164
  21.92160840  8.13628704  4.27205164
  21.92160840 10.84838273  4.27205164
  17.22412089 13.56047841  4.27205164
  19.57286465 12.20443057  4.27205164
  19.57286465 14.91652625  4.27205164
  21.92160840 13.56047841  4.27205164
  24.27035216 12.20443057  4.27205164
  24.27035216 14.91652625  4.27205164
  14.09246255  8.13628704  6.34141822
  16.44120630  9.49233489  6.34141822
  18.78995006 10.84838273  6.34141822
  18.78995006  8.13628704  6.34141822
  21.13869382  9.49233489  6.34141822
  23.48743758 10.84838273  6.34141822
  16.44120630 12.20443057  6.34141822
  18.78995006 13.56047841  6.34141822
  21.13869382 14.91652625  6.34141822
  21.13869382 12.20443057  6.34141822
  23.48743758 13.56047841  6.34141822
  25.83618133 14.91652625  6.34141822
  19.23135670 10.86853240  9.43151233
  19.16978886 10.94498360  7.65936233
  20.42235197  9.98320927  8.46366233
  18.70512337  8.59071637  9.44987546
  18.66900256  8.33747506  7.70380360
  16.75223453 10.07921698  7.65421233
  16.79667357 10.08339801  9.41878233
  16.30607868  7.64225603  9.45917233
  16.30472335  7.59713452  7.69512233
  14.38201976  9.18215666  7.63554233
  14.38925293  9.28042722  9.39838233
  13.92625012  6.83448469  9.55330233
  13.95706527  6.70510661  7.79389233
  12.01846878  8.27745719  7.63639233
  11.98413582  8.42124379  9.39592233
  11.55615052  5.97079898  9.60264233
  11.63480539  5.79844240  7.84844233
   9.67727195  7.35248399  7.61375233
   9.58569720  7.49574215  9.37117233
   9.19740237  5.03509218  9.56314233
   9.33275401  4.86726896  7.81201233
   6.98769728  6.39794335  7.67950764
   7.56659871  6.51674311  9.34297120
   6.98200634  3.92804099  7.65258233
   5.63708167  4.83101936  8.36994233
   6.83098245  4.04335004  9.41673233
  19.37297294 10.29038050  8.51276233
  18.46626154  9.07039687  8.49363233
  16.99035023  9.46699409  8.53240233
  16.08704857  8.23355923  8.56175233
  14.60677595  8.62018815  8.55004233
  13.71608133  7.37946597  8.62499233
  12.23121392  7.74311832  8.57009233
  11.36034257  6.48862677  8.65582233
   9.87139932  6.82237731  8.55391233
   9.02185535  5.55122914  8.61134233
   7.53303318  5.86170129  8.46469233
   6.69915570  4.59001036  8.47757233
 


--------------------------------------------------------------------------------------------------------


 k-point  1 :   0.0000 0.0000 0.0000  plane waves:  132693
 k-point  2 :   0.3333 0.0000 0.0000  plane waves:  132620
 k-point  3 :   0.0000 0.3333 0.0000  plane waves:  132620
 k-point  4 :   0.3333 0.3333 0.0000  plane waves:  132620
 k-point  5 :  -0.3333 0.3333 0.0000  plane waves:  132456

 maximum and minimum number of plane-waves per node :    132693   132456

 maximum number of plane-waves:    132693
 maximum index in each direction: 
   IXMAX=   32   IYMAX=   32   IZMAX=   34
   IXMIN=  -32   IYMIN=  -32   IZMIN=  -34


 serial   3D FFT for wavefunctions
 parallel 3D FFT for charge:
    minimum data exchange during FFTs selected (reduces bandwidth)


 total amount of memory used by VASP MPI-rank0   413308. kBytes
=======================================================================

   base      :      30000. kBytes
   nonlr-proj:      84163. kBytes
   fftplans  :      11107. kBytes
   grid      :      55284. kBytes
   one-center:       3576. kBytes
   wavefun   :     229178. kBytes
 
     INWAV:  cpu time    0.0000: real time    0.0003
 Broyden mixing: mesh for mixing (old mesh)
   NGX = 65   NGY = 65   NGZ = 69
  (NGX  =196   NGY  =196   NGZ  =216)
  gives a total of 291525 points

 initial charge density was supplied:
 charge density of overlapping atoms calculated
 number of electron    1610.0000000 magnetization 
 keeping initial charge density in first step


--------------------------------------------------------------------------------------------------------


 Maximum index for non-local projection operator         2382
 Maximum index for augmentation-charges         1071 (set IRDMAX)


--------------------------------------------------------------------------------------------------------


 First call to EWALD:  gamma=   0.097
 Maximum number of real-space cells 3x 3x 3
 Maximum number of reciprocal cells 3x 3x 3

    FEWALD:  cpu time    0.0110: real time    0.0110


--------------------------------------- Iteration      1(   1)  ---------------------------------------


    POTLOK:  cpu time    0.1810: real time    0.1947
    SETDIJ:  cpu time    0.0210: real time    0.0305
     EDDAV:  cpu time   74.1676: real time   74.2367
       DOS:  cpu time    0.0020: real time    0.0030
    --------------------------------------------
      LOOP:  cpu time   74.3716: real time   74.4649

 eigenvalue-minimisations  : 10080
 total energy-change (2. order) : 0.9643783E+04  (-0.6587029E+05)
 number of electron    1610.0000000 magnetization 
 augmentation part     1610.0000000 magnetization 

 DIPCOR: dipole corrections for dipol
 direction  3 min pos   148,
 dipolmoment           0.000000      0.000000     -0.001379 electrons x Angstroem
 Tr[quadrupol]    -99033.131664

 energy correction for charged system         0.000000 eV
 dipol+quadrupol energy correction           -0.000000 eV
 added-field ion interaction         -0.011983 eV  (added to PSCEN)


 Free energy of the ion-electron system (eV)
  ---------------------------------------------------
  alpha Z        PSCENC =      2980.66646181
  Ewald energy   TEWEN  =    292885.52855568
  -Hartree energ DENC   =   -389126.64173854
  -exchange      EXHF   =         0.00000000
  -V(xc)+E(xc)   XCENC  =     -5949.38379416
  PAW double counting   =     90189.25480676   -80838.89165636
  entropy T*S    EENTRO =        -0.05176501
  eigenvalues    EBANDS =     10075.85830664
  atomic energy  EATOM  =     89427.44347338
  Solvation  Ediel_sol  =         0.00000000
  ---------------------------------------------------
  free energy    TOTEN  =      9643.78265020 eV

  energy without entropy =     9643.83441521  energy(sigma->0) =     9643.80853271


--------------------------------------------------------------------------------------------------------




--------------------------------------- Iteration      1(   2)  ---------------------------------------


     EDDAV:  cpu time   77.9647: real time   77.9975
       DOS:  cpu time    0.0058: real time    0.0058
    --------------------------------------------
      LOOP:  cpu time   77.9706: real time   78.0033

 eigenvalue-minimisations  : 10752
 total energy-change (2. order) :-0.1073167E+05  (-0.1001936E+05)
 number of electron    1610.0000000 magnetization 
 augmentation part     1610.0000000 magnetization 

 DIPCOR: dipole corrections for dipol
 direction  3 min pos   148,
 dipolmoment           0.000000      0.000000     -0.001379 electrons x Angstroem
 Tr[quadrupol]    -99033.131664

 energy correction for charged system         0.000000 eV
 dipol+quadrupol energy correction           -0.000000 eV
 added-field ion interaction         -0.011983 eV  (added to PSCEN)


 Free energy of the ion-electron system (eV)
  ---------------------------------------------------
  alpha Z        PSCENC =      2980.66646181
  Ewald energy   TEWEN  =    292885.52855568
  -Hartree energ DENC   =   -389126.64173854
  -exchange      EXHF   =         0.00000000
  -V(xc)+E(xc)   XCENC  =     -5949.38379416
  PAW double counting   =     90189.25480676   -80838.89165636
  entropy T*S    EENTRO =        -0.07683308
  eigenvalues    EBANDS =      -655.78739420
  atomic energy  EATOM  =     89427.44347338
  Solvation  Ediel_sol  =         0.00000000
  ---------------------------------------------------
  free energy    TOTEN  =     -1087.88811871 eV

  energy without entropy =    -1087.81128563  energy(sigma->0) =    -1087.84970217


--------------------------------------------------------------------------------------------------------




--------------------------------------- Iteration      1(   3)  ---------------------------------------


     EDDAV:  cpu time  117.0044: real time  117.0490
       DOS:  cpu time    0.0043: real time    0.0043
    --------------------------------------------
      LOOP:  cpu time  117.0087: real time  117.0533

 eigenvalue-minimisations  : 17616
 total energy-change (2. order) :-0.8711884E+03  (-0.8266656E+03)
 number of electron    1610.0000000 magnetization 
 augmentation part     1610.0000000 magnetization 

 DIPCOR: dipole corrections for dipol
 direction  3 min pos   148,
 dipolmoment           0.000000      0.000000     -0.001379 electrons x Angstroem
 Tr[quadrupol]    -99033.131664

 energy correction for charged system         0.000000 eV
 dipol+quadrupol energy correction           -0.000000 eV
 added-field ion interaction         -0.011983 eV  (added to PSCEN)


 Free energy of the ion-electron system (eV)
  ---------------------------------------------------
  alpha Z        PSCENC =      2980.66646181
  Ewald energy   TEWEN  =    292885.52855568
  -Hartree energ DENC   =   -389126.64173854
  -exchange      EXHF   =         0.00000000
  -V(xc)+E(xc)   XCENC  =     -5949.38379416
  PAW double counting   =     90189.25480676   -80838.89165636
  entropy T*S    EENTRO =        -0.07983264
  eigenvalues    EBANDS =     -1526.97282854
  atomic energy  EATOM  =     89427.44347338
  Solvation  Ediel_sol  =         0.00000000
  ---------------------------------------------------
  free energy    TOTEN  =     -1959.07655261 eV

  energy without entropy =    -1958.99671997  energy(sigma->0) =    -1959.03663629


--------------------------------------------------------------------------------------------------------




--------------------------------------- Iteration      1(   4)  ---------------------------------------


     EDDAV:  cpu time   95.9597: real time   96.0092
       DOS:  cpu time    0.0041: real time    0.0041
    --------------------------------------------
      LOOP:  cpu time   95.9638: real time   96.0133

 eigenvalue-minimisations  : 13152
 total energy-change (2. order) :-0.4905508E+02  (-0.4732284E+02)
 number of electron    1610.0000000 magnetization 
 augmentation part     1610.0000000 magnetization 

 DIPCOR: dipole corrections for dipol
 direction  3 min pos   148,
 dipolmoment           0.000000      0.000000     -0.001379 electrons x Angstroem
 Tr[quadrupol]    -99033.131664

 energy correction for charged system         0.000000 eV
 dipol+quadrupol energy correction           -0.000000 eV
 added-field ion interaction         -0.011983 eV  (added to PSCEN)


 Free energy of the ion-electron system (eV)
  ---------------------------------------------------
  alpha Z        PSCENC =      2980.66646181
  Ewald energy   TEWEN  =    292885.52855568
  -Hartree energ DENC   =   -389126.64173854
  -exchange      EXHF   =         0.00000000
  -V(xc)+E(xc)   XCENC  =     -5949.38379416
  PAW double counting   =     90189.25480676   -80838.89165636
  entropy T*S    EENTRO =        -0.09255902
  eigenvalues    EBANDS =     -1576.01518265
  atomic energy  EATOM  =     89427.44347338
  Solvation  Ediel_sol  =         0.00000000
  ---------------------------------------------------
  free energy    TOTEN  =     -2008.13163311 eV

  energy without entropy =    -2008.03907409  energy(sigma->0) =    -2008.08535360


--------------------------------------------------------------------------------------------------------




--------------------------------------- Iteration      1(   5)  ---------------------------------------


     EDDAV:  cpu time  107.2025: real time  107.2434
       DOS:  cpu time    0.0040: real time    0.0040
    --------------------------------------------
      LOOP:  cpu time  107.2065: real time  107.2474

 eigenvalue-minimisations  : 15936
 total energy-change (2. order) :-0.2426553E+01  (-0.2388040E+01)
 number of electron    1610.0000000 magnetization 
 augmentation part     1610.0000000 magnetization 

 DIPCOR: dipole corrections for dipol
 direction  3 min pos   148,
 dipolmoment           0.000000      0.000000     -0.001379 electrons x Angstroem
 Tr[quadrupol]    -99033.131664

 energy correction for charged system         0.000000 eV
 dipol+quadrupol energy correction           -0.000000 eV
 added-field ion interaction         -0.011983 eV  (added to PSCEN)


 Free energy of the ion-electron system (eV)
  ---------------------------------------------------
  alpha Z        PSCENC =      2980.66646181
  Ewald energy   TEWEN  =    292885.52855568
  -Hartree energ DENC   =   -389126.64173854
  -exchange      EXHF   =         0.00000000
  -V(xc)+E(xc)   XCENC  =     -5949.38379416
  PAW double counting   =     90189.25480676   -80838.89165636
  entropy T*S    EENTRO =        -0.09185359
  eigenvalues    EBANDS =     -1578.44244073
  atomic energy  EATOM  =     89427.44347338
  Solvation  Ediel_sol  =         0.00000000
  ---------------------------------------------------
  free energy    TOTEN  =     -2010.55818575 eV

  energy without entropy =    -2010.46633216  energy(sigma->0) =    -2010.51225895


--------------------------------------------------------------------------------------------------------




--------------------------------------- Iteration      1(   6)  ---------------------------------------


     EDDAV:  cpu time   99.4890: real time   99.5301
       DOS:  cpu time    0.0042: real time    0.0042
    --------------------------------------------
      LOOP:  cpu time   99.4932: real time   99.5343

 eigenvalue-minimisations  : 14496
 total energy-change (2. order) :-0.9257148E-01  (-0.9191578E-01)
 number of electron    1610.0000000 magnetization 
 augmentation part     1610.0000000 magnetization 

 DIPCOR: dipole corrections for dipol
 direction  3 min pos   148,
 dipolmoment           0.000000      0.000000     -0.001379 electrons x Angstroem
 Tr[quadrupol]    -99033.131664

 energy correction for charged system         0.000000 eV
 dipol+quadrupol energy correction           -0.000000 eV
 added-field ion interaction         -0.011983 eV  (added to PSCEN)


 Free energy of the ion-electron system (eV)
  ---------------------------------------------------
  alpha Z        PSCENC =      2980.66646181
  Ewald energy   TEWEN  =    292885.52855568
  -Hartree energ DENC   =   -389126.64173854
  -exchange      EXHF   =         0.00000000
  -V(xc)+E(xc)   XCENC  =     -5949.38379416
  PAW double counting   =     90189.25480676   -80838.89165636
  entropy T*S    EENTRO =        -0.09193342
  eigenvalues    EBANDS =     -1578.53493237
[...]

 eigenvalue-minimisations  :  5752
 total energy-change (2. order) : 0.1662277E-04  (-0.1203188E-05)
 number of electron    1609.9999940 magnetization 
 augmentation part      528.4297654 magnetization 

 DIPCOR: dipole corrections for dipol
 direction  3 min pos   150,
 dipolmoment           0.000000      0.000000     -0.854728 electrons x Angstroem
 Tr[quadrupol]    -99080.888465

 energy correction for charged system         0.000000 eV
 dipol+quadrupol energy correction           -0.011255 eV
 added-field ion interaction        -13.049447 eV  (added to PSCEN)


 eigenvalues of (default mixing * dielectric matrix)
  average eigenvalue GAMMA=   0.6029
  2.4006  0.8911  0.3255  0.2471  0.1741  0.1192  0.0628

  free energy =  -0.188074054339E+04  energy without entropy=  -0.188060815407E+04


--------------------------------------------------------------------------------------------------------




--------------------------------------- Iteration    125(   9)  ---------------------------------------


    POTLOK:  cpu time    0.1708: real time    0.1715
    SETDIJ:  cpu time    0.0200: real time    0.0200
    EDDIAG:  cpu time   13.7050: real time   13.7117
  RMM-DIIS:  cpu time   19.1946: real time   19.2053
    ORTHCH:  cpu time    4.3374: real time    4.3395
       DOS:  cpu time    0.0011: real time    0.0011
    --------------------------------------------
      LOOP:  cpu time   37.4289: real time   37.4490

 eigenvalue-minimisations  :  5374
 total energy-change (2. order) : 0.1094057E-05  (-0.4584163E-06)
 number of electron    1609.9999940 magnetization 
 augmentation part      528.4297654 magnetization 

 DIPCOR: dipole corrections for dipol
 direction  3 min pos   150,
 dipolmoment           0.000000      0.000000     -0.854671 electrons x Angstroem
 Tr[quadrupol]    -99080.888396

 energy correction for charged system         0.000000 eV
 dipol+quadrupol energy correction           -0.011254 eV
 added-field ion interaction        -13.048571 eV  (added to PSCEN)


  free energy =  -0.188074054229E+04  energy without entropy=  -0.188060815121E+04


--------------------------------------------------------------------------------------------------------




------------------------ aborting loop because EDIFF is reached ----------------------------------------


    CHARGE:  cpu time    3.0764: real time    3.0778
    FORLOC:  cpu time    0.1699: real time    0.1702
    FORNL :  cpu time   12.5771: real time   12.5830
    STRESS:  cpu time   37.5098: real time   37.5282
    FORCOR:  cpu time    0.2759: real time    0.2759
    FORHAR:  cpu time    0.1961: real time    0.1961
    MIXING:  cpu time    0.0063: real time    0.0063
    OFIELD:  cpu time    0.0001: real time    0.0001

  Number of pair interactions contributing to vdW energy: 1149477
  Edisp (eV):  -18.40002
    FORVDW:  cpu time    0.1584: real time    0.1584

  FORCE on cell =-STRESS in cart. coord.  units (eV):
  Direction    XX          YY          ZZ          XY          YZ          ZX
  --------------------------------------------------------------------------------------
  Alpha Z  2980.67845  2980.67845  2980.67845
  Ewald  347625.97921344050.23167************  1328.95711     8.15559     1.50421
  Hartree368455.83138365269.32512************  1143.20415     6.63462     1.59467
  E(xc)   -7503.16554 -7503.64615 -7519.09111     0.25276    -0.00002     0.01053
  Local  ************************749095.42791 -2482.43155   -14.83822    -3.08369
  n-local  2100.90222  2099.00411  1851.86415     1.56467     0.02020    -0.09422
  augment  8674.78881  8674.47854  8679.46482     0.13960     0.01468     0.00022
  Kinetic 18969.55519 18953.98007 19073.62387     9.31752    -0.05955    -0.04538
  Fock        0.00000     0.00000     0.00000     0.00000     0.00000     0.00000
  vdW       -23.02926   -21.88454   -19.59900    -0.53983    -0.00326     0.00808
  -------------------------------------------------------------------------------------
  Total    -160.49644  -161.07021   -76.10713     0.46443    -0.07597    -0.10558
  in kB     -42.04982   -42.20014   -19.93995     0.12168    -0.01990    -0.02766
  external pressure =      -34.73 kB  Pullay stress =        0.00 kB



--------------------------------------------------------------------------------------------------------



  FREE ENERGIE OF THE ION-ELECTRON SYSTEM (eV)
  ---------------------------------------------------
  free  energy   TOTEN  =     -1899.14056102 eV

  energy  without entropy=    -1899.00816993  energy(sigma->0) =    -1899.07436547
 
 d Force = 0.1807060E-03[ 0.127E-04, 0.349E-03]  d Energy = 0.1082526E-03 0.725E-04
 d Force = 0.1532853E+02[ 0.153E+02, 0.153E+02]  d Ewald  = 0.1532853E+02-0.916E-06


--------------------------------------------------------------------------------------------------------


    POTLOK:  cpu time    0.2114: real time    0.2117


--------------------------------------------------------------------------------------------------------




--------------------------------------------------------------------------------------------------------


    WAVPRE:  cpu time    0.1366: real time    0.1380
    FEWALD:  cpu time    0.0093: real time    0.0093
    ORTHCH:  cpu time    8.4645: real time    8.4685
     LOOP+:  cpu time  552.9927: real time  554.0374


--------------------------------------- Iteration    126(   1)  ---------------------------------------


    POTLOK:  cpu time    0.1700: real time    0.1703
    SETDIJ:  cpu time    0.0242: real time    0.0242
     EDDAV:  cpu time   74.3785: real time   74.4161
       DOS:  cpu time    0.0018: real time    0.0018
    CHARGE:  cpu time    3.0829: real time    3.0842
    MIXING:  cpu time    0.0044: real time    0.0044
    --------------------------------------------
      LOOP:  cpu time   77.6619: real time   77.7009

 eigenvalue-minimisations  : 10080
 total energy-change (2. order) :-0.7965227E-03  (-0.5036843E-02)
 number of electron    1609.9999940 magnetization 
 augmentation part      528.4296815 magnetization 

 DIPCOR: dipole corrections for dipol
 direction  3 min pos   150,
 dipolmoment           0.000000      0.000000     -0.854741 electrons x Angstroem
 Tr[quadrupol]    -99080.930372

 energy correction for charged system         0.000000 eV
 dipol+quadrupol energy correction           -0.011256 eV
 added-field ion interaction        -13.048066 eV  (added to PSCEN)


  free energy =  -0.188074133991E+04  energy without entropy=  -0.188060897534E+04


--------------------------------------------------------------------------------------------------------




--------------------------------------- Iteration    126(   2)  ---------------------------------------


    POTLOK:  cpu time    0.1693: real time    0.1697
    SETDIJ:  cpu time    0.0201: real time    0.0201
    EDDIAG:  cpu time   16.7630: real time   16.9541
  RMM-DIIS:  cpu time   34.9033: real time   35.6663
    ORTHCH:  cpu time    4.3492: real time    4.3511
       DOS:  cpu time    0.0011: real time    0.0011
    CHARGE:  cpu time    3.0832: real time    3.0847
    MIXING:  cpu time    0.0047: real time    0.0047
    --------------------------------------------
      LOOP:  cpu time   59.2939: real time   60.2519

 eigenvalue-minimisations  : 10239
 total energy-change (2. order) :-0.8053976E-04  (-0.6804530E-04)
 number of electron    1609.9999940 magnetization 
 augmentation part      528.4291550 magnetization 

 DIPCOR: dipole corrections for dipol
 direction  3 min pos   150,
 dipolmoment           0.000000      0.000000     -0.855931 electrons x Angstroem
 Tr[quadrupol]    -99080.926693

 energy correction for charged system         0.000000 eV
 dipol+quadrupol energy correction           -0.011287 eV
 added-field ion interaction        -13.066224 eV  (added to PSCEN)


 eigenvalues of (default mixing * dielectric matrix)
  average eigenvalue GAMMA=   0.4438
  0.4438

  free energy =  -0.188074142045E+04  energy without entropy=  -0.188060910496E+04


--------------------------------------------------------------------------------------------------------




--------------------------------------- Iteration    126(   3)  ---------------------------------------


    POTLOK:  cpu time    0.1690: real time    0.1704
    SETDIJ:  cpu time    0.0201: real time    0.0201
    EDDIAG:  cpu time   13.7358: real time   13.7430
  RMM-DIIS:  cpu time   32.9192: real time   32.9433
    ORTHCH:  cpu time    4.3469: real time    4.3493
       DOS:  cpu time    0.0012: real time    0.0012
    CHARGE:  cpu time    3.0979: real time    3.0999
    MIXING:  cpu time    0.0050: real time    0.0050
    --------------------------------------------
      LOOP:  cpu time   54.2951: real time   54.3322

 eigenvalue-minimisations  :  9520
 total energy-change (2. order) :-0.3476329E-04  (-0.1174534E-04)
 number of electron    1609.9999940 magnetization 
 augmentation part      528.4304437 magnetization 

 DIPCOR: dipole corrections for dipol
 direction  3 min pos   150,
 dipolmoment           0.000000      0.000000     -0.851707 electrons x Angstroem
 Tr[quadrupol]    -99080.930217

 energy correction for charged system         0.000000 eV
 dipol+quadrupol energy correction           -0.011176 eV
 added-field ion interaction        -13.001745 eV  (added to PSCEN)


 eigenvalues of (default mixing * dielectric matrix)
  average eigenvalue GAMMA=   0.5568
  1.0212  0.0925

  free energy =  -0.188074145521E+04  energy without entropy=  -0.188060898466E+04


--------------------------------------------------------------------------------------------------------




--------------------------------------- Iteration    126(   4)  ---------------------------------------


    POTLOK:  cpu time    0.1690: real time    0.1697
    SETDIJ:  cpu time    0.0203: real time    0.0203
    EDDIAG:  cpu time   13.6348: real time   13.6441
  RMM-DIIS:  cpu time   34.6506: real time   34.6740
    ORTHCH:  cpu time    4.4626: real time    4.4649
       DOS:  cpu time    0.0012: real time    0.0012
    CHARGE:  cpu time    3.0876: real time    3.0893
    MIXING:  cpu time    0.0052: real time    0.0052
    --------------------------------------------
      LOOP:  cpu time   56.0312: real time   56.0686

 eigenvalue-minimisations  :  9890
 total energy-change (2. order) :-0.3137559E-04  (-0.1365055E-04)
 number of electron    1609.9999940 magnetization 
 augmentation part      528.4286194 magnetization 

 DIPCOR: dipole corrections for dipol
 direction  3 min pos   150,
 dipolmoment           0.000000      0.000000     -0.857678 electrons x Angstroem
 Tr[quadrupol]    -99080.920827

 energy correction for charged system         0.000000 eV
 dipol+quadrupol energy correction           -0.011333 eV
 added-field ion interaction        -13.092902 eV  (added to PSCEN)


 eigenvalues of (default mixing * dielectric matrix)
  average eigenvalue GAMMA=   0.6466
  1.7184  0.1553  0.0662

  free energy =  -0.188074148659E+04  energy without entropy=  -0.188060925010E+04


--------------------------------------------------------------------------------------------------------




--------------------------------------- Iteration    126(   5)  ---------------------------------------


    POTLOK:  cpu time    0.1683: real time    0.1689
    SETDIJ:  cpu time    0.0201: real time    0.0201
    EDDIAG:  cpu time   13.6531: real time   13.6597
  RMM-DIIS:  cpu time   33.6591: real time   33.6769
    ORTHCH:  cpu time    4.3345: real time    4.3365
       DOS:  cpu time    0.0012: real time    0.0012
    CHARGE:  cpu time    3.1282: real time    3.1297
    MIXING:  cpu time    0.0054: real time    0.0054
    --------------------------------------------
      LOOP:  cpu time   54.9699: real time   54.9985

 eigenvalue-minimisations  :  9789
 total energy-change (2. order) : 0.7019778E-04  (-0.1097763E-04)
 number of electron    1609.9999940 magnetization 
 augmentation part      528.4299993 magnetization 

 DIPCOR: dipole corrections for dipol
 direction  3 min pos   150,
 dipolmoment           0.000000      0.000000     -0.853283 electrons x Angstroem
 Tr[quadrupol]    -99080.922008

 energy correction for charged system         0.000000 eV
 dipol+quadrupol energy correction           -0.011217 eV
 added-field ion interaction        -13.025804 eV  (added to PSCEN)


 eigenvalues of (default mixing * dielectric matrix)
  average eigenvalue GAMMA=   0.6557
  2.1431  0.2904  0.1264  0.0627

  free energy =  -0.188074141639E+04  energy without entropy=  -0.188060902342E+04


--------------------------------------------------------------------------------------------------------




--------------------------------------- Iteration    126(   6)  ---------------------------------------


    POTLOK:  cpu time    0.1687: real time    0.1691
    SETDIJ:  cpu time    0.0201: real time    0.0201
    EDDIAG:  cpu time   13.6237: real time   13.6296
  RMM-DIIS:  cpu time   29.4395: real time   29.4545
    ORTHCH:  cpu time    4.3780: real time    4.3797
       DOS:  cpu time    0.0012: real time    0.0012
    CHARGE:  cpu time    3.0932: real time    3.0956
    MIXING:  cpu time    0.0056: real time    0.0056
    --------------------------------------------
      LOOP:  cpu time   50.7299: real time   50.7554

 eigenvalue-minimisations  :  8457
 total energy-change (2. order) : 0.3321210E-04  (-0.6208039E-05)
 number of electron    1609.9999940 magnetization 
 augmentation part      528.4298139 magnetization 

 DIPCOR: dipole corrections for dipol
 direction  3 min pos   150,
 dipolmoment           0.000000      0.000000     -0.853790 electrons x Angstroem
 Tr[quadrupol]    -99080.919971

 energy correction for charged system         0.000000 eV
 dipol+quadrupol energy correction           -0.011231 eV
 added-field ion interaction        -13.033542 eV  (added to PSCEN)


 eigenvalues of (default mixing * dielectric matrix)
  average eigenvalue GAMMA=   0.6634
  2.3101  0.6126  0.2117  0.1198  0.0629

  free energy =  -0.188074138318E+04  energy without entropy=  -0.188060900790E+04


--------------------------------------------------------------------------------------------------------




--------------------------------------- Iteration    126(   7)  ---------------------------------------


    POTLOK:  cpu time    0.1710: real time    0.1727
    SETDIJ:  cpu time    0.0201: real time    0.0201
    EDDIAG:  cpu time   13.7360: real time   13.7418
  RMM-DIIS:  cpu time   21.3400: real time   21.3520
    ORTHCH:  cpu time    4.4760: real time    4.4780
       DOS:  cpu time    0.0012: real time    0.0012
    --------------------------------------------
      LOOP:  cpu time   39.7443: real time   39.7657

 eigenvalue-minimisations  :  6174
 total energy-change (2. order) : 0.7856870E-06  (-0.2673410E-05)
 number of electron    1609.9999940 magnetization 
 augmentation part      528.4298139 magnetization 

 DIPCOR: dipole corrections for dipol
 direction  3 min pos   150,
 dipolmoment           0.000000      0.000000     -0.853648 electrons x Angstroem
 Tr[quadrupol]    -99080.919351

 energy correction for charged system         0.000000 eV
 dipol+quadrupol energy correction           -0.011227 eV
 added-field ion interaction        -13.031385 eV  (added to PSCEN)


  free energy =  -0.188074138239E+04  energy without entropy=  -0.188060901115E+04


--------------------------------------------------------------------------------------------------------




------------------------ aborting loop because EDIFF is reached ----------------------------------------


    CHARGE:  cpu time    3.0888: real time    3.0903
    FORLOC:  cpu time    0.1709: real time    0.1709
    FORNL :  cpu time   12.5828: real time   12.5890
    STRESS:  cpu time   37.4624: real time   37.4812
    FORCOR:  cpu time    0.2752: real time    0.2752
    FORHAR:  cpu time    0.1971: real time    0.1972
    MIXING:  cpu time    0.0058: real time    0.0058
    OFIELD:  cpu time    0.0001: real time    0.0001

  Number of pair interactions contributing to vdW energy: 1149482
  Edisp (eV):  -18.39943
    FORVDW:  cpu time    0.1584: real time    0.1584

  FORCE on cell =-STRESS in cart. coord.  units (eV):
  Direction    XX          YY          ZZ          XY          YZ          ZX
  --------------------------------------------------------------------------------------
  Alpha Z  2980.67845  2980.67845  2980.67845
  Ewald  347616.83913344040.89450************  1328.81835     8.08268     1.69624
  Hartree368446.36445365259.38502************  1143.14635     6.30573     1.79366
  E(xc)   -7503.16832 -7503.64873 -7519.09639     0.25283    -0.00004     0.01140
  Local  ************************749076.25469 -2482.24016   -14.43535    -3.46628
  n-local  2100.89806  2099.00579  1851.87180     1.54745     0.01732    -0.10468
  augment  8674.78986  8674.47594  8679.46258     0.14015     0.01471     0.00179
  Kinetic 18969.59814 18953.98056 19073.64504     9.32712    -0.05701    -0.06344
  Fock        0.00000     0.00000     0.00000     0.00000     0.00000     0.00000
  vdW       -23.02895   -21.88389   -19.59846    -0.53993    -0.00337     0.00811
  -------------------------------------------------------------------------------------
  Total    -160.48496  -161.04694   -76.07333     0.45216    -0.07532    -0.12320
  in kB     -42.04681   -42.19405   -19.93109     0.11846    -0.01973    -0.03228
  external pressure =      -34.72 kB  Pullay stress =        0.00 kB



--------------------------------------------------------------------------------------------------------



  FREE ENERGIE OF THE ION-ELECTRON SYSTEM (eV)
  ---------------------------------------------------
  free  energy   TOTEN  =     -1899.14081115 eV

  energy  without entropy=    -1899.00843990  energy(sigma->0) =    -1899.07462553
 
 d Force = 0.2923556E-03[ 0.227E-03, 0.357E-03]  d Energy = 0.2501362E-03 0.422E-04
 d Force = 0.9164403E+01[ 0.916E+01, 0.917E+01]  d Ewald  = 0.9164402E+01 0.102E-05


--------------------------------------------------------------------------------------------------------


    POTLOK:  cpu time    0.2124: real time    0.2126


--------------------------------------------------------------------------------------------------------


 Conjugate gradient step on ions:
 trial-energy change:   -0.000250  1 .order   -0.000292   -0.000357   -0.000227
  (g-gl).g = 0.232E-03      g.g   = 0.233E-03  gl.gl    = 0.291E-03
 g(Force)  = 0.233E-03   g(Stress)= 0.000E+00 ortho     = 0.670E-05
 gamma     =   0.79753
 trial     =   1.50093
 opt step  =   4.12784  (harmonic =   4.12784) maximal distance =0.00484089
 next E    = -1899.141052   (d E  =  -0.00049)


--------------------------------------------------------------------------------------------------------


  
 reached required accuracy - stopping structural energy minimisation
     LOOP+:  cpu time  446.9828: real time  448.1587
    4ORBIT:  cpu time    0.0000: real time    0.0000

 total amount of memory used by VASP MPI-rank0   413308. kBytes
=======================================================================

   base      :      30000. kBytes
   nonlr-proj:      84163. kBytes
   fftplans  :      11107. kBytes
   grid      :      55284. kBytes
   one-center:       3576. kBytes
   wavefun   :     229178. kBytes
 
  
  
 General timing and accounting informations for this job:
 ========================================================
  
                  Total CPU time used (sec):    92368.797
                            User time (sec):    92015.742
                          System time (sec):      353.053
                         Elapsed time (sec):    92576.806
  
                   Maximum memory used (kb):      881052.
                   Average memory used (kb):           0.
  
                          Minor page faults:     27734533
                          Major page faults:            0
                 Voluntary context switches:        17761
